LAMMPS data file via write_data, version 22 Jul 2025, timestep = 40000, units = real

70 atoms
3 atom types

0 7.401 xlo xhi
0 6.40945401340863 ylo yhi
0 40.32963854382093 zlo zhi
-3.7005 0 0 xy xz yz

Masses

1 12.01099999691024
2 28.08499999277529
3 6.939999998214724

Atoms # charge

19 2 -0.03049379230296074 0 0 0 0 0 0
20 2 -0.006633433064410449 3.7005 0 2.3516919839766413 0 0 0
21 2 -0.006217568088934914 3.7005 2.136484671136209 3.1355893119688565 0 0 0
22 2 -0.01167573125520256 3.627312412366084 2.296635312326435 5.4995411728059835 0 0 0
23 2 -0.0129769501748426 2.083541616236721 1.0758981804699452 6.331619496057463 0 0 0
31 2 -0.03047098851132014 1.8502499999999986 3.2047270067043145 0 0 0 0
32 2 -0.006756877622001195 5.550749999999999 3.2047270067043145 2.3516919839766413 0 0 0
33 2 -0.006230323161193207 -1.850250000000575 5.341211677840524 3.1355893119688565 1 0 0
34 2 -0.01150446422049606 -1.8383830068695015 5.3548128112565205 5.443742012406564 1 0 0
35 2 -0.01305300161179974 3.7325735822086403 4.413146032196163 6.370895398193051 0 0 0
43 2 -0.03042327267527839 3.7005 0 0 0 0 0
44 2 -0.006732820337718413 0 0 2.3516919839766413 1 0 0
45 2 -0.006364494149607691 -3.544570377952046e-13 2.136484671136209 3.1355893119688565 1 0 0
46 2 -0.01124436050588934 0.08836850005606238 2.180542440271769 5.357532628884351 1 0 0
47 2 -0.01302324544146536 5.5032361201700155 1.2597291245503108 6.425950915668917 0 0 0
55 2 -0.0304805744268367 5.550749999999999 3.2047270067043145 0 0 0 0
56 2 -0.00672432959822715 1.8502499999999986 3.2047270067043145 2.3516919839766413 1 0 0
57 2 -0.006283401852035134 1.850250000000001 5.341211677840524 3.1355893119688565 1 0 0
58 2 -0.01127534557063992 1.8469947315339026 5.540258441435298 5.344221727795001 1 0 0
59 2 -0.01290364894469223 0.09099698773655185 4.430081502960917 6.278050962050255 1 0 0
24 2 -0.012251773048016 2.012333460877709 1.0187394311456957 8.569539620670383 0 0 0
25 2 -0.007643814481692384 -1.9839337923003335 3.5877210034529807 9.790427314022686 1 0 0
26 2 -0.007904924273811779 3.337261682719075 0.2375081309718136 12.22564377857716 0 0 0
36 2 -0.01186508147987245 3.4880133571102077 4.632967402414943 8.706050366908297 0 0 0
37 2 -0.008245147974878762 3.6430101301823345 0.18546241277783684 9.689804817973844 1 1 0
38 2 -0.006928039286215317 -1.8613373803198092 3.351736302333166 12.118780504339034 1 0 0
48 2 -0.01120134367612612 5.386175643726161 1.269277237570527 8.914396928922105 0 0 0
49 2 -0.008351681928953482 1.8023392522538466 3.2862850042257783 9.56254984029664 1 0 0
50 2 -0.006013686675749801 0.07631291974785173 0.23252958341933608 11.999483896463374 1 0 0
51 2 -0.01301284277722632 0.2934724940039268 2.230383337913338 12.78955436203994 1 0 0
60 2 -0.0115908553091256 -0.10563154482017181 4.392718185199699 8.736115436679741 1 0 0
61 2 -0.007937594165467694 -0.04848852080610961 0.264571973842677 9.683347386548489 2 1 0
62 2 -0.005994713466430036 1.95220852108519 3.6337676276929627 11.994396688040526 1 0 0
63 2 -0.01330385361891471 1.7125694415803443 5.820527203159893 12.826587407156376 1 0 0
27 2 -0.01895198929048053 3.7149412823285974 2.331860382991276 13.285384292435245 0 0 0
39 2 -0.0194779632893838 -1.8590952568807408 5.53233279126265 13.32108653777247 1 0 0
28 2 -0.02260247307066816 2.332829649656543 2.9159181966808374 15.22561072856543 0 0 0
29 2 0.02926205347970157 0.9952501063164851 1.8452296773334904 17.394443172383692 0 0 0
30 2 0.02140901874959747 -1.1595675819121876 2.7744973315141337 17.31775837578872 0 0 0
40 2 -0.01890031099080187 -3.148958952439299 6.276416203852919 15.439770473135463 1 0 0
41 2 0.02799530163752283 3.0929494130869015 4.8654833514217035 17.301897276147617 0 0 0
42 2 0.0220788211588774 0.5604879386581418 6.203823362839304 17.268061147069552 0 0 0
52 2 -0.0234718558601699 0.09695415963402768 2.188227961919525 15.176416565890333 1 0 0
53 2 -0.01965389992528276 4.981310931791044 1.9151082219484463 15.472814081803495 0 0 0
54 2 0.02790995765897543 3.491076571392877 2.502440178158368 17.375498060216206 0 0 0
64 2 -0.02433191117492384 1.9335497695467947 5.293177024789987 15.150348121989126 1 0 0
65 2 -0.02272848050866637 -0.6648828766956922 4.771503879607865 15.294049147558633 1 0 0
66 2 0.02557737542325622 -1.6279964018014124 5.316490039832425 17.354455741984317 1 0 0
5 1 -0.02173165766013505 1.769709821215952 5.240336648229785 20.306267913930615 19 7 0
9 1 -0.02264269991142422 -1.9169451016240222 3.3501463205427435 20.265822613051164 20 7 0
16 1 -0.02030243765499831 1.6976625691998801 3.8221117897746586 20.332701931230215 20 7 0
13 1 -0.03058407041266379 1.842688623405542 1.0334174399119578 20.55099557131847 20 7 0
11 1 -0.01876969679171378 4.30813868629385 5.315543011166979 20.285816219277073 19 7 0
12 1 -0.02478897082392846 -1.8820430784070408 5.977811907570602 20.380417361921243 20 7 0
17 1 -0.02450867701275095 -0.5661634747244252 5.372066766919112 20.318695147045158 20 7 0
2 1 -0.0232992803630505 5.509050637957119 1.8480769877731917 20.32683313879273 19 7 0
3 1 -0.02425526498759806 2.9922193972292055 3.1402193000084746 20.410440412045208 19 7 0
4 1 -0.0225577665107234 4.216946353273778 3.9281312327788456 20.31157473427722 19 7 0
6 1 -0.01846352410890763 3.1223660158766497 6.058988521741264 20.298207360177237 19 7 0
7 1 -0.03419591365054727 6.759951727077374 1.0579865008549763 20.516126139332894 19 7 0
14 1 -0.03542446029496926 3.0789553996875005 1.744789037386514 20.584097542092838 20 7 0
18 1 -0.03631091541493226 0.6519554415508283 6.102005349780511 20.471467514767856 20 7 0
1 1 -0.03599091379518796 4.3349321543643935 1.125508858403665 20.517527271669884 19 7 0
8 1 -0.0385400779600728 0.5644158806832831 1.7598069112755512 20.617628808654175 20 7 0
10 1 -0.02196176705547191 -0.6489752023300803 3.9011575785491677 20.269056095381625 20 7 0
15 1 -0.03331698702735877 0.4985523485651367 3.143149190588196 20.4798467850257 20 7 0
67 3 0.2105621454365313 -2.2352655081546526 5.013475341356962 24.725900358624994 2 32 0
68 3 0.2129835595727433 4.9286633727090745 2.2057147418701 23.691859122333934 -3 29 0
69 3 0.2387686134484979 -0.027813316720802242 2.740987036987786 23.359740062313925 7 30 0
70 3 0.2449310946591412 0.4188939113270349 6.137941624433143 23.246835408420882 2 30 0

Velocities

19 0 0 0
20 0 0 0
21 0 0 0
22 0.001851882665802948 -0.005453053533672158 0.009634766627455703
23 0.007236590789052039 -0.00791182966400673 0.0009631744173640435
31 0 0 0
32 0 0 0
33 0 0 0
34 -0.008609083619594716 0.008502064596671358 0.0013594170775897306
35 -0.0010587827173311312 0.007614258324463707 0.0022213927557918046
43 0 0 0
44 0 0 0
45 0 0 0
46 0.003834191038837026 -0.005336996724051432 0.007879941083675077
47 -0.011459541637489419 -0.011345409156309577 0.001743420274164681
55 0 0 0
56 0 0 0
57 0 0 0
58 0.005434217251434152 -0.006530407730858478 0.0001973512491912515
59 0.003282614324366254 0.0003166876933247637 -0.0023491307401685623
24 0.004015402294265344 0.00102631714664407 0.0028397140340641973
25 -0.005021690156531009 0.002890571243085282 -0.010007214709509141
26 -0.00011844518394907732 -0.002490632301293356 -0.00046307031365749114
36 0.005717570759383692 -0.0014001119272381364 -0.0006114586162439403
37 0.0041951439656178376 -0.0015848300968013976 0.010562245747991453
38 0.0046353427988416445 0.002310977132734491 -0.003848407418697122
48 0.003676883614327202 0.003620575842810099 0.005525651609310747
49 0.004103757569944949 -0.003448666133622537 0.006105089362712852
50 0.004279144879038869 -0.005726126503662239 0.003706109019684423
51 -0.003962178603273004 -0.0021184962911625655 -0.006542413545018917
60 0.00901544382022587 -7.106358934342648e-05 -0.004928975943218567
61 -0.0007112295254294587 -0.0076758726575769775 0.013425631617574766
62 -0.008507639184666698 -0.0038386491163360783 0.0015741508394761415
63 -0.0037793255603117593 -0.007421002885661364 0.003358320681773539
27 0.0029442062519850357 -0.001789341418147776 -0.010049078827290801
39 0.0026078433579517168 -0.012029273167204261 0.0011592255666096078
28 0.0022474094559123766 0.002053595864147431 0.002590019601795908
29 -0.0035009776171726877 0.00802654449922655 -0.009648418902068774
30 -0.006388098827648763 -0.008632066784869448 -0.0028893772270995152
40 0.0035323001912982988 0.005596700422041629 -0.0011151934498122296
41 -0.006780808871666493 -0.008671003396444122 -0.010795595609389853
42 0.0017642510584576436 -0.0019452635942010764 0.00043125013108419205
52 -0.017306202401900127 -0.0011335879248183145 -0.010140562855173684
53 0.01197244709177016 -0.006785959060448224 0.01272482649658639
54 0.005877270035616761 -0.006927092866755147 0.0040028776438100775
64 0.006702256191845285 0.000186989277181939 0.0058737484813251315
65 -0.0037523273354661026 -0.006247482437454177 0.005438286764930252
66 0.0017906856973256343 -0.0034172784038415042 0.0027214332857134057
5 -0.0009092013866557451 0.004872757892429093 0.009499366889688722
9 0.0016609607536690963 -0.0055923777386276225 -0.006528337323163977
16 0.0043312998476397885 0.0014843151242946364 -0.007194911813000325
13 0.0030212199844341313 0.0021165038949128886 -0.0016057523863259482
11 0.007357360231814766 0.0019375281535400797 -0.015537482395111874
12 0.00516005770726435 -0.005751056397466685 0.005442506669948376
17 -0.01139139331752668 -0.0007610050776528347 0.003873042606717328
2 0.006702997993714978 0.008516343425356754 0.0010035197814566126
3 0.0009093389334683484 -0.0015143138355514266 0.010827686516753737
4 0.007951800147429404 0.004475395716564389 0.006317799562951564
6 0.016579325658268623 -0.011260056447995591 0.004059425525907304
7 -0.0022746931954709046 0.007759435767201708 0.0040413565283872
14 -0.002198339517027105 0.012652190409757302 -0.009536818575132219
18 0.026164748299320462 0.014440160469778642 -0.007870648381793537
1 0.011086441725265902 0.015949489902593747 -0.00279716406926051
8 0.007985617918476648 0.013987720642762637 -0.008497217481494585
10 0.006000820516299385 -0.004869317189105582 0.012722429276948208
15 -0.0005136372469343925 -0.017084787249024815 0.0017811990665239188
67 0.00326722226942736 0.009537406206025218 0.006897728189828557
68 0.016362535693006296 0.0040613360229599885 -0.020698146236234453
69 0.001642271937861981 -0.013524632656459595 -0.004155274148364984
70 0.0017274526938942307 0.011505771839295477 -0.0016141782688674272
