LAMMPS data file via write_data, version 22 Jul 2025, timestep = 19, units = real

70 atoms
3 atom types

0 7.401 xlo xhi
0 6.40945401340863 ylo yhi
0 40.32963854382093 zlo zhi
-3.7005 0 0 xy xz yz

Masses

1 12.01099999691024
2 28.08499999277529
3 6.939999998214724

Atoms # charge

19 2 -0.02873741975776244 0 0 0 0 0 0
20 2 -0.005750416255531972 3.7005 0 2.3516919839766413 0 0 0
21 2 -0.005105391230704704 3.7005 2.136484671136209 3.1355893119688565 0 0 0
22 2 -0.01173443576449597 3.700471442528846 2.13650115879988 5.462508697802565 0 0 0
23 2 -0.01327620387267957 1.850266359041738 1.0682660544634615 6.2899777568672235 0 0 0
31 2 -0.02873736033653789 1.8502499999999988 3.2047270067043145 0 0 0 0
32 2 -0.005750416255531738 5.550749999999999 3.2047270067043145 2.3516919839766413 0 0 0
33 2 -0.005105351577402186 -1.8502500000000008 5.341211677840524 3.1355893119688565 1 0 0
34 2 -0.01172898354464433 -1.8502286091885987 5.341199327849982 5.462619537196094 1 0 0
35 2 -0.01327620387267931 3.700487638355018 4.272943315479102 6.289977756866945 0 0 0
43 2 -0.02873739397821973 3.7005 0 0 0 0 0
44 2 -0.005749970578408884 0 0 2.3516919839766413 1 0 0
45 2 -0.005105501172457716 -3.1465570889584643e-16 2.136484671136209 3.1355893119688565 1 0 0
46 2 -0.01172879747025747 2.9495680617289668e-05 2.136527468963439 5.462563079611632 1 0 0
47 2 -0.01327509020176063 5.550734431072299 1.068251324292682 6.289789976399711 0 0 0
55 2 -0.02873739397822016 5.550749999999999 3.2047270067043145 0 0 0 0
56 2 -0.005750411894865352 1.8502499999999988 3.2047270067043145 2.3516919839766413 1 0 0
57 2 -0.005105501172457599 1.850250000000001 5.341211677840524 3.1355893119688565 1 0 0
58 2 -0.01172879747025672 1.8502276838345886 5.341164734918063 5.462563079611663 1 0 0
59 2 -0.01327312479150111 1.1643775553775955e-05 4.272962619735354 6.290121223806226 1 0 0
24 2 -0.007797175094344393 1.8503534584866437 1.0684065378390815 8.607254345417628 0 0 0
25 2 -0.003749778525489579 5.550609576367251 3.2046063369285664 9.428279000683068 0 0 0
26 2 -0.009814672399423536 3.700589251493822 0.0017477065165381826 11.746989351610058 0 0 0
27 2 -0.02137922604852728 3.7006734469564315 2.136384531489214 12.585020369137961 0 0 0
36 2 -0.007797175094346409 3.7004095259051937 4.272797643459788 8.607254345417186 0 0 0
37 2 -0.003749778525490499 3.7005342912750843 0.00018194532073195644 9.428279000682922 1 1 0
38 2 -0.009814672399425394 5.549281067505205 3.2037758593850776 11.746989351610141 0 0 0
39 2 -0.02150809313820459 -1.8499970085565725 5.341065613162566 12.575706133735858 1 0 0
48 2 -0.007792547903670267 5.550647592920753 1.0683014603228593 8.60699888595117 0 0 0
49 2 -0.00374566252101237 1.8503878021779607 3.2046474465798904 9.42886957654317 1 0 0
50 2 -0.009901323246590437 7.400813338510488 0.00010776906120419421 11.745067448958489 0 0 0
51 2 -0.02153964849560575 -0.00014457077370402327 2.136944410748793 12.576595574595773 1 0 0
60 2 -0.007766858408455945 8.844024324511364e-05 4.272918281273718 8.607434903248414 1 0 0
61 2 -0.0037522234178902 7.400966071515542 1.9588619795477358e-05 9.427645262227939 1 1 0
62 2 -0.009794326368727128 1.8517200120518362 3.203878294850487 11.74752190688162 1 0 0
63 2 -0.02153964849560567 1.8497795684295126 5.341107009996909 12.576595574595766 1 0 0
1 1 -0.05873429845222176 -3.6964698142625165 6.407127184588208 20.184908036218676 0 -1 0
2 1 -0.04423683506248752 1.2422942469475717 0.7207219455033769 20.025530219657433 0 0 0
3 1 -0.03119808530254357 6.144617929599026 2.1334589751905426 19.899218776936742 -1 0 0
4 1 -0.0358061357777983 -0.005615943214173508 2.842210836046828 19.924864509057002 0 0 0
5 1 -0.03147761517017796 4.9146184510406945 4.253252578353625 19.923303674740644 -1 0 0
6 1 -0.04239494729171386 -1.2460800895981394 4.992394017433741 19.972204030979213 0 0 0
7 1 -0.0314776151701762 2.4743844439544476 0.02664329572285121 19.923303674740623 0 0 0
8 1 -0.05711229504186694 3.708800222582295 0.689324620759674 20.184533872779504 0 0 0
9 1 -0.03617615088738094 1.2535487497532771 2.1345712304834272 19.938992290987805 0 0 0
10 1 -0.05263661642568539 2.440680234540089 2.8638419518548988 20.167705731465897 0 0 0
11 1 -0.05435484518149626 -0.005116630118173232 4.275923430048489 20.097002833747958 0 0 0
12 1 -0.0358061357777978 1.2362652414649455 4.9932121448749 19.924864509057 0 0 0
13 1 -0.03119808530254523 4.925179294352572 0.02132930223126597 19.899218776936756 0 0 0
14 1 -0.04011943152560458 6.158094612712814 0.7175917599274892 19.985961431136413 0 0 0
15 1 -0.06426012793807862 3.691547230806585 2.1416535548400013 20.286732778857342 0 0 0
16 1 -0.05711229504186841 4.957927478259199 2.8528764927111254 20.184533872779518 0 0 0
17 1 -0.03617615088738033 2.4786814630905796 4.256563335998358 19.938992290987805 0 0 0
18 1 -0.04423683506248885 3.6974836096029136 4.9732346638250835 20.02553021965745 0 0 0
28 2 -0.01442566786977164 3.7012508723865905 2.1360511547616894 14.929564353191015 0 0 0
29 2 0.009494787249347001 1.852908329317872 1.0725135092421736 15.739624056070886 0 0 0
30 2 0.04015491974652472 1.790293245116019 1.0057735195759083 18.093195499274696 0 0 0
40 2 -0.0156440076556155 -1.8537601005581992 5.343238235342658 14.914534219516558 1 0 0
41 2 0.009494787249347703 3.6981302197531543 4.268531574714491 15.739624056070918 0 0 0
42 2 0.0401549197465243 3.724621204151625 4.356127823126537 18.093195499274707 0 0 0
52 2 -0.01576393213793437 -0.0002785949074758243 2.134216274030861 14.915662492087671 1 0 0
53 2 0.009242319518495081 5.548042295220587 1.0698056296513991 15.734743778098188 0 0 0
54 2 0.03995330846161197 5.6091082875770155 1.0345491625260759 18.07686596002584 0 0 0
64 2 -0.01576393213793457 1.8520751920653402 5.342587146660464 14.915662492087671 1 0 0
65 2 0.008672394402559881 -0.0002667105010601686 4.273123327652002 15.727930527598174 1 0 0
66 2 0.03947846336027461 0.015055971812732731 4.264276772893425 18.07133313098741 1 0 0
67 3 0.2686073862775054 0.9534588791912312 1.6025480496046602 22.407509015307028 0 0 0
68 3 0.2675958762430744 -0.918271394094173 4.8031335788418215 22.41555492396652 0 0 0
69 3 0.2744924678269839 4.578197502320741 1.629745781904265 22.35891840225535 0 0 0
70 3 0.2686073862775051 2.7893821178527762 4.782460377762858 22.40750901530703 0 0 0

Velocities

19 0 0 0
20 0 0 0
21 0 0 0
22 0 0 0
23 0 0 0
31 0 0 0
32 0 0 0
33 0 0 0
34 0 0 0
35 0 0 0
43 0 0 0
44 0 0 0
45 0 0 0
46 0 0 0
47 0 0 0
55 0 0 0
56 0 0 0
57 0 0 0
58 0 0 0
59 0 0 0
24 0 0 0
25 0 0 0
26 0 0 0
27 0 0 0
36 0 0 0
37 0 0 0
38 0 0 0
39 0 0 0
48 0 0 0
49 0 0 0
50 0 0 0
51 0 0 0
60 0 0 0
61 0 0 0
62 0 0 0
63 0 0 0
1 0 0 0
2 0 0 0
3 0 0 0
4 0 0 0
5 0 0 0
6 0 0 0
7 0 0 0
8 0 0 0
9 0 0 0
10 0 0 0
11 0 0 0
12 0 0 0
13 0 0 0
14 0 0 0
15 0 0 0
16 0 0 0
17 0 0 0
18 0 0 0
28 0 0 0
29 0 0 0
30 0 0 0
40 0 0 0
41 0 0 0
42 0 0 0
52 0 0 0
53 0 0 0
54 0 0 0
64 0 0 0
65 0 0 0
66 0 0 0
67 0 0 0
68 0 0 0
69 0 0 0
70 0 0 0
