LAMMPS data file via write_data, version 22 Jul 2025, timestep = 2, units = real

75 atoms
3 atom types

0 7.401 xlo xhi
0 6.40945401340863 ylo yhi
0 40.32963854382093 zlo zhi
-3.7005 0 0 xy xz yz

Masses

1 12.01099999691024
2 28.08499999277529
3 6.939999998214724

Atoms # charge

19 2 -0.03774132171901236 0 0 0 0 0 0
20 2 -0.007567843561410915 3.7005 0 2.3516919839766413 0 0 0
21 2 -0.006697134921497748 3.7005 2.136484671136209 3.1355893119688565 0 0 0
22 2 -0.0154025493507653 3.7005000000466826 2.1364846711092573 5.475982832186103 0 0 0
23 2 -0.01743427666113394 1.850250018303558 1.068242346170167 6.283414420844378 0 0 0
31 2 -0.03774131229446658 1.8502499999999988 3.2047270067043145 0 0 0 0
32 2 -0.007567843561410428 5.550749999999999 3.2047270067043145 2.3516919839766413 0 0 0
33 2 -0.006696884213891774 -1.8502500000000008 5.341211677840524 3.1355893119688565 1 0 0
34 2 -0.01539994053043131 -1.8502499841257378 5.3412116686755144 5.475982873328979 1 0 0
35 2 -0.01743427666113391 3.7004999999701225 4.2729693211200415 6.283414420844378 0 0 0
43 2 -0.03774131200845468 3.7005 0 0 0 0 0
44 2 -0.007567620295769635 0 0 2.3516919839766413 1 0 0
45 2 -0.006696875275122297 -3.1465570889584643e-16 2.136484671136209 3.1355893119688565 1 0 0
46 2 -0.01539998173845102 -4.668165900130963e-11 2.1364846894392784 5.475982873406462 1 0 0
47 2 -0.017434342263538 5.550749981696442 1.0682423461356676 6.283414420964808 0 0 0
55 2 -0.03774131200845447 5.550749999999999 3.2047270067043145 0 0 0 0
56 2 -0.007567830958066203 1.8502499999999988 3.2047270067043145 2.3516919839766413 1 0 0
57 2 -0.006696875275122374 1.850250000000001 5.341211677840524 3.1355893119688565 1 0 0
58 2 -0.01539998173845101 1.8502499841257356 5.341211668729417 5.475982873406462 1 0 0
59 2 -0.01743443527239143 2.9883948445460123e-11 4.2729693422551644 6.283414561746245 1 0 0
24 2 -0.01032693550431825 1.85025011438352 1.0682424019188688 8.611927322342554 0 0 0
25 2 -0.004805530097547631 5.550749994654423 3.204727003691568 9.417697471265237 0 0 0
26 2 -0.01235154110109727 3.700499991641049 0.00031126235980859457 11.744505906516672 0 0 0
27 2 -0.02794191602080028 3.7004999956578577 2.1364846736431455 12.552894729411019 0 0 0
36 2 -0.01032693550431892 3.700499999730311 4.272969210038001 8.611927322342554 0 0 0
37 2 -0.004805530097547349 3.700499999936325 6.13577612895902e-09 9.417697471265237 1 1 0
38 2 -0.01235154110109748 5.550480434709686 3.2045713827634734 11.744505906516672 0 0 0
39 2 -0.02801286811674015 -1.850248687217078 5.341210919904948 12.551718741668136 1 0 0
48 2 -0.01032700047737808 5.550749885616468 1.0682424016074663 8.611927322028407 0 0 0
49 2 -0.004806078313300034 1.8502500053455238 3.204727003618073 9.417697470956703 1 0 0
50 2 -0.01243516029865868 -3.7004999916592123 6.409454008593073 11.744048362772041 1 -1 0
51 2 -0.02801005783272471 4.341838371233821e-09 2.1364861895198533 12.551718697717629 1 0 0
60 2 -0.01032448024839609 2.697104496037402e-10 4.2729693421167 8.611927377434405 1 0 0
61 2 -0.004819276493179659 -3.7004999999363384 6.409454013371872 9.417697089848389 2 0 0
62 2 -0.0123521777043185 1.850519565293435 3.2045713731095855 11.744505899472067 1 0 0
63 2 -0.02801005783272485 1.8502486872121102 5.341210914888558 12.551718697717632 1 0 0
1 1 -0.06622062781702737 7.400984747594472 8.805980438506743e-06 20.057772800241658 -1 0 0
2 1 -0.06058675950842312 1.2344840323345943 0.7145853158797802 20.014257381424198 0 0 0
3 1 -0.05830779876424318 6.130741717505097 2.14577980371739 20.00866131783641 -1 0 0
4 1 -0.06049262166989242 -0.0013585854426671877 2.8631047138253405 20.012467541276102 0 0 0
5 1 -0.05829606946012943 4.923669023566928 4.236530502450258 20.008668863683873 -1 0 0
6 1 -0.06045405164026331 -1.2230208859907494 4.979080780023714 20.012465582397095 0 0 0
7 1 -0.05829606946012925 2.4933914727538853 0.02716630794802087 20.008668863683866 0 0 0
8 1 -0.06673495269407383 3.6963784499110046 0.6721172613265153 20.077040753351305 0 0 0
9 1 -0.05831973879722759 1.2702148316234867 2.145772107182801 20.008666714648914 0 0 0
10 1 -0.06681263496877662 2.4261160805699853 2.8722505700700514 20.077043659525494 0 0 0
11 1 -0.06109776441729014 -7.291448759782807e-06 4.272973551992325 20.02239059484769 0 0 0
12 1 -0.06049262166989237 1.2202992914109456 4.97907822600252 20.012467541276102 0 0 0
13 1 -0.05830779876424347 4.907571037805704 0.027186040149480978 20.00866131783641 0 0 0
14 1 -0.06056193811335778 6.163298938576049 0.7145870409894047 20.014272249120655 0 0 0
15 1 -0.06143377681002486 3.7004802412444815 2.136496078859029 20.04193665447154 0 0 0
16 1 -0.06673495269407449 4.966618602324718 2.8722377431210946 20.07704075335131 0 0 0
17 1 -0.0583197387972279 2.477314260259369 4.236529647367516 20.008666714648918 0 0 0
18 1 -0.06058675950842365 3.698892979444079 4.983066822900731 20.0142573814242 0 0 0
28 2 -0.02194794546102413 3.700500020242247 2.1364846594493403 14.89234363294766 0 0 0
29 2 0.01019238453742788 1.849608366362684 1.067871904365974 15.686800232137019 0 0 0
30 2 0.06432594428444195 1.8346272860217008 1.059223897922117 18.010469501012246 0 0 0
40 2 -0.02214691696685003 -1.849620966844256 5.340848505378723 14.894883000842418 1 0 0
41 2 0.01019238453742892 3.7004999860127383 4.273710228903319 15.686800232137024 0 0 0
42 2 0.06432594428444291 3.7004988391147218 4.291008228276683 18.01046950101222 0 0 0
52 2 -0.02212901326276162 3.022863471283865e-09 2.1372110065182 14.89488288992589 1 0 0
53 2 0.01018199832854553 5.551391468495836 1.0678719835593533 15.686800286979361 0 0 0
54 2 0.06417893480797816 5.566372130408341 1.059222894371533 18.0104597469085 0 0 0
64 2 -0.02212901326276117 1.8496209766189557 5.34084850753165 14.89488288992589 1 0 0
65 2 0.01036712694120622 -7.876915175878777e-09 4.272969346820156 15.692628537303069 1 0 0
66 2 0.06248329875024577 9.053040731914115e-07 4.2729688195948645 18.057283872540058 1 0 0
67 3 0.1613177416813087 0.6173775396099795 1.0655705377580926 22.343130767697648 0 0 0
68 3 0.161142171509394 -0.6157736044199755 3.204272908435448 22.346184520321632 0 0 0
69 3 0.160773900202209 -1.8490269214954955 5.340505533136708 22.34771088799074 0 0 0
70 3 0.1628955519879595 3.088496445283544 1.0658703831112726 22.333691371755148 0 0 0
71 3 0.1626734141041405 1.8552470199778153 3.201841975874977 22.334295950700717 0 0 0
72 3 0.161142171509394 0.6176314584266639 5.340593143598514 22.346184520321632 0 0 0
73 3 0.1613743404258499 5.551675103403978 1.0677082268687905 22.345202214289387 0 0 0
74 3 0.1628955519879598 4.321677393725959 3.20180244073951 22.333691371755148 0 0 0
75 3 0.1613177416813085 3.0863776145822346 5.342004111501408 22.343130767697648 0 0 0

Velocities

19 0 0 0
20 0 0 0
21 0 0 0
22 0 0 0
23 0 0 0
31 0 0 0
32 0 0 0
33 0 0 0
34 0 0 0
35 0 0 0
43 0 0 0
44 0 0 0
45 0 0 0
46 0 0 0
47 0 0 0
55 0 0 0
56 0 0 0
57 0 0 0
58 0 0 0
59 0 0 0
24 0 0 0
25 0 0 0
26 0 0 0
27 0 0 0
36 0 0 0
37 0 0 0
38 0 0 0
39 0 0 0
48 0 0 0
49 0 0 0
50 0 0 0
51 0 0 0
60 0 0 0
61 0 0 0
62 0 0 0
63 0 0 0
1 0 0 0
2 0 0 0
3 0 0 0
4 0 0 0
5 0 0 0
6 0 0 0
7 0 0 0
8 0 0 0
9 0 0 0
10 0 0 0
11 0 0 0
12 0 0 0
13 0 0 0
14 0 0 0
15 0 0 0
16 0 0 0
17 0 0 0
18 0 0 0
28 0 0 0
29 0 0 0
30 0 0 0
40 0 0 0
41 0 0 0
42 0 0 0
52 0 0 0
53 0 0 0
54 0 0 0
64 0 0 0
65 0 0 0
66 0 0 0
67 0 0 0
68 0 0 0
69 0 0 0
70 0 0 0
71 0 0 0
72 0 0 0
73 0 0 0
74 0 0 0
75 0 0 0
