LAMMPS data file via write_data, version 22 Jul 2025, timestep = 500, units = real

69 atoms
3 atom types

0 7.401 xlo xhi
0 6.40945401340863 ylo yhi
0 40.32963854382093 zlo zhi
-3.7005 0 0 xy xz yz

Masses

1 12.01099999691024
2 28.08499999277529
3 6.939999998214724

Atoms # charge

18 2 -0.03033317346239579 0 0 0 0 0 0
19 2 -0.006770869169453356 3.7005 0 2.3516919839766413 0 0 0
20 2 -0.006458133838926617 3.7005 2.136484671136209 3.1355893119688565 0 0 0
21 2 -0.01151680625673747 3.7048825231913116 2.0984740566294366 5.4615995310450245 0 0 0
22 2 -0.01234391904427203 1.8592985343289348 1.0649491083293783 6.333456973198695 0 0 0
30 2 -0.03033062964888609 1.8502499999999986 3.2047270067043145 0 0 0 0
31 2 -0.00677855139523497 5.550749999999999 3.2047270067043145 2.3516919839766413 0 0 0
32 2 -0.006447958848892314 -1.8502500000000048 5.341211677840524 3.1355893119688565 1 0 0
33 2 -0.01161896968246454 -1.8373888242864522 5.335807105150792 5.512975072151329 1 0 0
34 2 -0.01233477212950714 3.7282366129645133 4.230700107754179 6.299465826593438 0 0 0
42 2 -0.03033669971838129 3.7005 0 0 0 0 0
43 2 -0.006779462245179167 0 0 2.3516919839766413 1 0 0
44 2 -0.006453085891763776 -2.7796838904710812e-15 2.136484671136209 3.1355893119688565 1 0 0
45 2 -0.01158436112875939 0.00873693254219104 2.1603290179942345 5.489159888883908 1 0 0
46 2 -0.01231242859710975 5.5723060631516965 1.037451661090426 6.310930157742761 0 0 0
54 2 -0.03033423890767306 5.550749999999999 3.2047270067043145 0 0 0 0
55 2 -0.00678045939595539 1.8502499999999986 3.2047270067043145 2.3516919839766413 1 0 0
56 2 -0.006453524125143564 1.850250000000001 5.341211677840524 3.1355893119688565 1 0 0
57 2 -0.01158734260487532 1.9061611610802085 5.311962050074919 5.495222299472655 1 0 0
58 2 -0.01233711996632968 0.016018063913352056 4.269885447167554 6.356771089341429 1 0 0
23 2 -0.01045331133969914 1.867950698422154 1.0278180523622062 8.668317802235562 0 0 0
24 2 -0.008621146027095076 5.543178228398113 3.211310675784206 9.53119199897209 0 0 0
25 2 -0.008732800254188482 0.03898897549995703 6.394151194612058 11.859892846250833 0 -1 0
26 2 -0.01424007517523936 3.7076608679774328 2.1402719984647525 12.68933446234884 0 0 0
35 2 -0.01039835546553769 3.6526497190746756 4.228350750735919 8.64889107118133 0 0 0
36 2 -0.00875506867706739 0.034620214556692626 6.395062125487737 9.516519030641762 1 0 0
37 2 -0.00808237689939879 5.502840688412589 3.213947166295677 11.846754657166336 0 0 0
38 2 -0.01320811695139232 -1.8562779417141022 5.369883968634486 12.687067807545876 1 0 0
47 2 -0.01049599321101399 5.542811807893574 1.095997433724294 8.637700889663861 0 0 0
48 2 -0.008466777396882931 1.8123096672217167 3.1337907720212566 9.56684029775128 1 0 0
49 2 -0.007395865756018691 0.001163416608090568 0.018606913011235238 11.85416608023197 1 0 0
50 2 -0.01321963005034605 -0.06144746581303769 2.1356182019186187 12.705305133986027 1 0 0
59 2 -0.0103887577344263 0.011578756540488446 4.267490631724747 8.702607206198483 1 0 0
60 2 -0.008640240389575511 3.683613084222103 6.40202981369282 9.493068239755832 1 0 0
61 2 -0.008111627205949119 1.8200091972693673 3.2078418618295297 11.89823985887892 1 0 0
62 2 -0.01389331241068052 1.8867985617027596 5.33079016070782 12.73207101376196 1 0 0
1 1 -0.01086553990659351 3.656577649921206 6.289073031983023 19.994304247665138 -1 -1 0
2 1 -0.01787776678130349 1.2368425369851246 0.5597061575350097 20.15346408515241 0 0 0
3 1 -0.03819800566928771 -1.0773274792710013 2.0462558421009747 20.561801160190136 0 0 0
4 1 -0.0190935989467538 0.08873735643185922 2.7252470477294892 20.12558674303574 0 0 0
5 1 -0.03308953700116816 4.8047343192013825 4.241949316363893 20.47222732928056 -1 0 0
6 1 -0.03919610006264476 -1.3742728711183827 4.833673661536315 20.60205261790184 0 0 0
7 1 -0.05642552119394317 -1.3781323573755262 6.28603146207031 20.773539180274977 0 -1 0
8 1 -0.04342004810400826 3.6898461817713297 0.5217898731101389 20.657831673102468 0 0 0
9 1 -0.001516080031658531 1.047007105668695 1.8238373733804176 19.703524772648688 0 0 0
10 1 -0.01224482960705536 -0.06750174021453346 4.127149576941958 20.055852748297887 0 0 0
11 1 -0.01710574042872535 1.2895624637030623 4.988011750462659 20.0022776218927 0 0 0
12 1 -0.02148314847817399 1.2269926931197235 6.4041202127581025 20.282709239659905 0 -1 0
13 1 -0.01820148778320406 6.1438348670197485 0.6890014923849335 20.22303169421933 0 0 0
15 1 -0.05098008921189821 5.016395289283682 2.7179563202810706 20.76907866257963 0 0 0
16 1 -0.0001648639158314142 2.512274498717583 4.4526523057134195 19.579231382777518 0 0 0
17 1 -0.01191247557394714 3.658240465662923 4.893259421049902 19.955026504534793 0 0 0
27 2 -0.02014434832480187 3.731238037527561 2.1203911526121324 15.035642692479572 0 0 0
28 2 -0.005926811138033001 1.7614093660048007 1.0661417416570083 15.948546816684365 0 0 0
29 2 0.0222111357570589 2.4171345906129664 1.2843203391850313 18.21448297319604 0 0 0
39 2 -0.01908845021302657 -1.930471713851452 5.349696422192605 15.042190184370192 1 0 0
40 2 -0.006170407620168565 3.699491669962764 4.260917469046062 15.95791645884269 0 0 0
41 2 0.01811071339418445 3.987605959768123 3.576135281595699 18.397317712650022 0 0 0
51 2 -0.02027820419099559 -0.0549309217776557 2.195422291545435 15.071998957920975 1 0 0
52 2 -0.002741456140051723 5.555176269007551 1.1088872474415412 16.004608628164185 0 0 0
53 2 0.03209502384403712 4.6802885038270325 1.5356061879664713 18.211540955437986 0 0 0
63 2 -0.02110283227176667 1.8282093524067125 5.2998679428209154 15.09241102960565 1 0 0
64 2 -0.003997491006708757 -0.05494252500475933 4.353856109406389 15.95693189502181 1 0 0
65 2 0.03085549269232249 -0.14560557397753016 5.346589065381932 18.16747653310772 1 0 0
14 1 -0.07051900219053774 3.9771469289521955 1.8624546379203581 20.87183157943788 0 0 0
66 3 0.2150044969552377 1.3828583402902253 2.1156462110884253 23.94597581644937 0 0 0
67 3 0.2188654156764413 -1.4557438117230823 5.23251956867358 23.949923376157635 0 0 0
68 3 0.248916734029532 4.284970339038573 1.4671495295622694 23.225561275437762 0 0 0
69 3 0.2086807844459255 3.4537190510026963 4.018440490085677 23.915988309559722 0 0 0

Velocities

18 0 0 0
19 0 0 0
20 0 0 0
21 0.0008912129341717175 0.002420004238206973 0.0025272354949328005
22 -0.0020942872665195484 -0.002026234166038664 -0.0009083118155850157
30 0 0 0
31 0 0 0
32 0 0 0
33 -0.0004238302215026591 0.0008349968341991299 -0.0019246936545871706
34 -0.0008190693495396174 -0.0015185193889050274 0.0006118898339296689
42 0 0 0
43 0 0 0
44 0 0 0
45 0.0010557795654530778 -6.41166889006418e-05 0.0004314793756034003
46 -0.0007295575512938435 -0.00027996832031548026 -0.001260816454719258
54 0 0 0
55 0 0 0
56 0 0 0
57 -0.0033417143350323504 0.0020622184853851546 -0.000902115022624355
58 0.0008572075418298746 -0.00013093382920667938 -0.0011438516175348021
23 0.0016298121389740675 0.00013981262805813112 0.00027999133427441413
24 -2.449541203922499e-05 -0.0007980374780482402 0.0011097800228170962
25 0.00018105664511079846 -8.432818391156258e-05 0.0016626826895920492
26 0.00021124318104022953 -0.00042173199243192907 0.0015437981343088222
35 -0.000134009568098749 0.0018616153509733195 0.002443177934879619
36 -0.0017882018712781602 -0.00026619474302968556 0.0012000846587782018
37 0.0008181782681013993 0.0011781212019960218 -0.0003974908546805173
38 0.0020761801442887896 -0.0005573545626776767 -0.0008954760388545211
47 0.00045212255345272864 -0.00010343077797370295 0.0006432926228129185
48 0.001037223865381901 0.001740996038467988 -0.0009932320769086118
49 -0.00020041045399148504 -0.0009291240786351048 0.0012273845998814494
50 0.002955490467119485 0.002530007359352149 0.002117323563069565
59 -0.0006758835627950407 0.0009813385818372177 -0.0008450462870469165
60 -0.0009956723678644446 -0.0024154375799546202 0.0013734740612403645
61 0.00016800931602525842 -0.0011335976040865719 -0.00030612305056441534
62 -0.00016756637822823035 -0.0009113127859621109 0.003385265752204024
1 0.006601212178178921 0.007037418782579952 0.0025083848361080125
2 0.005551382270673869 -0.004849375203488678 0.005605228170647365
3 0.003189839139907051 0.00177545481270765 -0.007725718332640264
4 0.006668953190301675 -0.0005715150829794829 0.0034014327488480238
5 0.0008394247916610907 0.0014031201930492128 0.0063397174880259815
6 0.003066860527152594 -0.0017076680721827865 0.008564654671114464
7 0.0012732446951625803 0.0012047930426529606 -0.004198567599652727
8 -0.009995320689513428 -0.004688680627111553 0.012833045989372762
9 0.005108647267552479 0.006139366720569713 0.003510879420860174
10 -0.01108103358327305 0.00014264865845211504 0.009891135868151156
11 0.001042538786642685 0.002761044315674465 0.009648368565309411
12 0.014540876830834297 -0.0035221521361767975 0.019431935919999213
13 -0.003827121038080848 0.0038041900342371034 0.005672813975445598
15 0.008115073968253618 -0.0038583968457061944 -0.0036800862400924892
16 -0.002749190831775286 -0.005960553778831643 0.0004263742363716581
17 -0.0005590887399520712 0.004991936676553602 -0.005228280507959623
27 -0.0004894519755182407 -0.0022493439727329823 -0.0008153283638820161
28 -0.0009407925551177266 -0.00021727430917844128 0.003191925948385417
29 0.0025617265263708916 -0.002846253807961192 -0.008161083876741648
39 -9.90190515144142e-05 6.333474044573432e-05 0.0005301266797280213
40 0.002311784448784224 -6.08926147117335e-05 0.0027526761866949368
41 -0.000995227207777875 0.003128165492119086 -0.0009942052553666605
51 -0.0012980017937425311 0.001577607619127649 0.0024162067119348077
52 -0.00024796008344638975 -0.00034532149526259325 0.004972723480577832
53 -0.016398156658486877 -0.010298842644730053 0.0006363673292980219
63 -0.0031591787091761153 -0.001315570866827481 0.003079318663470737
64 -0.0035534573050149468 0.004489057327193289 0.004345999143580974
65 0.005389778977063911 0.007366925094252247 -0.0009803656848169108
14 0.0043324902023410645 -0.0025589190895672713 -0.00034260269732124877
66 0.0008804983300073602 0.0031953467096408517 2.038454814538075e-05
67 -0.005579436727011478 -0.0031434007927014307 0.00567617766482568
68 0.0011557731016185776 0.004468566774992344 0.01071472319625019
69 -0.002328483327241322 -0.0032652670676485834 0.00017378891748883146
