LAMMPS data file via write_data, version 22 Jul 2025, timestep = 40000, units = real

69 atoms
3 atom types

0 7.401 xlo xhi
0 6.40945401340863 ylo yhi
0 40.32963854382093 zlo zhi
-3.7005 0 0 xy xz yz

Masses

1 12.01099999691024
2 28.08499999277529
3 6.939999998214724

Atoms # charge

18 2 -0.0300280084309325 0 0 0 0 0 0
19 2 -0.006727315737190253 3.7005 0 2.3516919839766413 0 0 0
20 2 -0.006282263989922664 3.7005 2.136484671136209 3.1355893119688565 0 0 0
21 2 -0.01184806794252561 3.6727898480368895 2.1338805769072735 5.52307229082118 0 0 0
22 2 -0.01295496188823561 1.911433804424908 1.0341833714872635 6.449333133839941 0 0 0
30 2 -0.03002459116082083 1.8502499999999986 3.2047270067043145 0 0 0 0
31 2 -0.006704175294145935 5.550749999999999 3.2047270067043145 2.3516919839766413 0 0 0
32 2 -0.006261261228441247 -1.8502500000001953 5.341211677840524 3.1355893119688565 1 0 0
33 2 -0.01192432543732376 -1.9132048338940315 5.429369095071125 5.560176819166698 1 0 0
34 2 -0.01297499459704778 3.7058546680957605 4.236468943548402 6.360381685616669 0 0 0
42 2 -0.03006901207410985 3.7005 0 0 0 0 0
43 2 -0.006670495827047989 0 0 2.3516919839766413 1 0 0
44 2 -0.006269761968949085 -1.2027936054555728e-13 2.136484671136209 3.1355893119688565 1 0 0
45 2 -0.01179009538607525 0.06696486539894606 2.1621425186985403 5.472494337636923 1 0 0
46 2 -0.01287302201046735 5.686806283500131 1.1434933160595624 6.346749712225027 0 0 0
54 2 -0.03005073672036362 5.550749999999999 3.2047270067043145 0 0 0 0
55 2 -0.006663788810389568 1.8502499999999986 3.2047270067043145 2.3516919839766413 1 0 0
56 2 -0.00627334146645871 1.850250000000001 5.341211677840524 3.1355893119688565 1 0 0
57 2 -0.01191760049171575 1.84256724668523 5.287431461078948 5.563700057679218 1 0 0
58 2 -0.01300297210581842 -0.016667267849710576 4.241120302356901 6.584959393431716 1 0 0
23 2 -0.009933696839376401 1.7744420893002386 0.9289659940996824 8.712077890153157 0 0 0
24 2 -0.006621894568425906 5.427901585307113 3.189591650905241 9.60899209943114 0 0 0
25 2 -0.008297339062905511 -0.02384998859400449 6.287081343982503 11.849857890772967 0 -1 0
26 2 -0.01834588866811224 3.790748117745538 2.0481819739311606 12.811960528784235 0 0 0
35 2 -0.0100574038328691 3.5551587237160085 4.145241587731548 8.64766799432255 0 0 0
36 2 -0.006857339224430431 -0.07084080582143341 6.322575060230338 9.636553114996909 1 0 0
37 2 -0.008949472868410836 -1.786078533805813 3.196272494746639 12.012617634455165 1 0 0
38 2 -0.01677315489855105 -1.881539689398758 5.454678424970603 12.843252601020602 1 0 0
47 2 -0.009754885741796298 5.538799090157224 1.0586621120393271 8.737331402505854 0 0 0
48 2 -0.006950177711697032 1.788749853396024 3.0131240275843 9.570678965596194 1 0 0
49 2 -0.007667021890628088 3.7084215531867337 6.336682804547589 11.879438304309698 0 -1 0
50 2 -0.01652414516889434 0.17065539873692562 2.075713115811697 12.834308744029258 1 0 0
59 2 -0.009604281749451472 0.03447511670452621 4.12050571784013 8.848470523469809 1 0 0
60 2 -0.007362378846657555 3.6733672890319773 6.319449314085987 9.477378002032692 1 0 0
61 2 -0.007646964421697309 1.960040312094067 2.998606291058408 11.898619932535537 1 0 0
62 2 -0.01613030170804561 1.877621650560158 5.35194732651905 12.718004738297866 1 0 0
27 2 -0.02368616547023672 3.807499178203887 2.383697519943551 15.099134805893103 0 0 0
28 2 0.002169657473479677 1.9314089254641744 1.0180635936479028 16.17101367011319 0 0 0
29 2 0.02966159062852568 3.2525701450175997 0.9296210209826189 18.22883694872601 0 0 0
39 2 -0.02068316213533301 -1.8201555522366404 5.53005397918301 15.138137680820401 1 0 0
40 2 0.001906114986932655 3.8701460496447995 4.540397218458273 16.192169027236634 0 0 0
41 2 0.02713751014711888 4.467023719836504 3.2766974650571656 18.312643305392744 0 0 0
51 2 -0.01861119424272759 0.06136254001141989 2.2194435985440313 15.219950137069766 1 0 0
52 2 -0.006300225357976951 5.602436083977438 1.1200111544201625 15.759384900927595 0 0 0
53 2 0.04054027137475779 5.5374285399826935 1.2105553486447087 17.985169272282754 0 0 0
63 2 -0.02039015942945353 1.9456309205330045 5.216836159062919 15.08527544120671 1 0 0
64 2 -0.00120030563516476 0.02639144143227083 4.3720216551963595 15.951392404858394 1 0 0
65 2 0.0364221715038706 1.6710436533562678 5.401160932520998 17.33791178259249 1 0 0
2 1 -0.02150444143828562 -1.2170754528576653 6.399796038899345 20.105655787739924 0 -1 0
14 1 -0.02693635869443027 5.284201103828885 1.308195626766257 20.199777902934528 0 0 0
15 1 -0.03399623529773806 -1.0715372287433917 2.152791869753397 20.39633727437098 1 0 0
8 1 -0.02902938656561711 1.3328921269031162 6.333916121651776 20.320462289624903 0 -1 0
16 1 -0.0293859093874352 3.755107701158029 3.6854503114610893 20.155564594667748 0 0 0
17 1 -0.02834432260145068 -2.3822427573052476 4.1733351462777355 20.221698009079056 1 0 0
9 1 -0.02180025942363405 2.352790430197638 1.3241573937438276 20.018939265126257 0 0 0
10 1 -0.02716996007976634 1.3552857333611013 3.546151050532522 20.249241985063726 0 0 0
1 1 -0.02562418591866601 -2.3834721750561094 5.627648484063277 20.215317128377777 0 -1 0
11 1 -0.03284922298997226 2.584285689012816 4.288923654740384 20.31331664950607 0 0 0
5 1 -0.03284215836126628 -1.111637710213254 3.5276343650595225 20.3617625318405 0 0 0
4 1 -0.0250470613254223 1.2957312221211037 2.1314120982324076 20.20020141433619 0 0 0
3 1 -0.03520703181867749 0.13507349169297453 1.371549349922163 20.417908616120336 0 0 0
6 1 -0.02721999347144224 0.10743190955233249 4.239002646092302 20.32103911707506 0 0 0
7 1 -0.03506598233885164 0.0313083864278105 5.686697324780941 20.351503406890235 0 -1 0
12 1 -0.04490759971960423 2.5396200565889027 5.6213211899198035 20.522339059088075 0 -1 0
13 1 -0.03626156844302744 -3.5921410228417527 6.33773609469087 20.41225026760592 1 -1 0
66 3 0.2266157653930883 2.3263777999944137 0.2507820987926084 23.47893801224955 5 5 0
67 3 0.2332322486777998 2.2514657722971987 3.545642073417438 23.246822446370995 5 6 0
68 3 0.2209781167496403 3.224572188991206 6.29345456548765 23.589754029182494 6 5 0
69 3 0.2241865829808966 5.005506559864856 3.49943938303258 23.503232908973906 4 5 0

Velocities

18 0 0 0
19 0 0 0
20 0 0 0
21 -0.0001420149691298144 -0.009507012308787597 -0.0006132199510912469
22 -0.00542460266037553 -0.00032143576231578316 -0.004303052477705009
30 0 0 0
31 0 0 0
32 0 0 0
33 -0.0005047475141151939 -0.0017147137936855518 0.0011375433220652265
34 -0.00010654421370627219 -0.001306951804880028 -0.0038985591273266334
42 0 0 0
43 0 0 0
44 0 0 0
45 0.0014450552221422482 -0.0020407170870681323 0.005471589804469268
46 0.00524058320866705 0.007546268942472684 0.0009864721082121517
54 0 0 0
55 0 0 0
56 0 0 0
57 0.0040132463835052725 -0.003934959846259689 -0.004289474368467722
58 0.0005838890173988177 0.0035456921469950915 0.005101241014987166
23 -0.008312465802985381 0.000289146425469165 -0.0035899289858090776
24 -4.1083927692665545e-05 -0.002750653219811629 0.0030139278435429547
25 0.004055744825569428 -0.0077059284595245615 -0.0003379724506968116
26 0.006366921396528371 -0.004846873575419345 -0.0029594849358894598
35 0.004862210948641307 0.000478263549829808 0.00237244425192321
36 0.002657456541334276 0.00033673473453647027 0.009693244848279834
37 -0.003398552016693463 0.004987569877765572 -0.0028114973324529324
38 -0.0005007764776677198 0.00010063620435865793 -0.008112977071677364
47 0.0026609903758361758 0.0016270894327817236 -0.00046263457858277627
48 -0.0015078977044949862 -0.00654840794860538 -0.0019960753358445166
49 0.010003391032446978 -6.330024779411644e-05 0.0025217176025764654
50 -0.004131374351503901 -0.0025783770047232927 -0.00642523628848179
59 0.0019243685036509505 0.0005430177911809703 0.005151328031387592
60 0.0041947101925689815 -0.0009861056789903712 -0.0013482791894077377
61 0.00513278754345668 0.007384951931585585 0.008406486552614823
62 0.00022576990486188915 -0.006953092190990946 0.004652441655092198
27 -0.002078815768158795 -0.0008999416749967536 -0.0015745514980360662
28 0.0015939138157448967 0.00016861905108483713 0.0018814849251829224
29 0.0020454471576752337 0.0023159725597069023 0.010200695700328647
39 -0.005830719550951718 0.0014449352981964754 9.115778265640367e-05
40 -0.0006365535966053272 -0.006186934761288479 -0.003225577110760591
41 0.0038747364356576416 -0.004187696933112972 -0.008427252084068441
51 -0.0009075211661703131 0.005348544229143269 -0.00321638502049258
52 0.002891166635505549 0.0010472418671924329 -0.009720729995581183
53 -0.00109010993519417 -0.005664608747481909 -0.0038669405391996616
63 0.001866092181014341 -0.000791181379690014 0.005243669268114527
64 -0.004849091225549408 0.008452405455113228 -0.0004830429240078338
65 -0.001387342913516191 -0.004102289528077248 0.0010009089289980122
2 0.007712155580687827 0.004915664273337662 0.0008147868278638309
14 -0.009585312834899372 -0.0035875602025945176 -0.009696974804440747
15 0.0031880476022805217 0.003380950726042357 0.004960163949263643
8 0.0021830879427854077 -0.008020409592122739 0.0031775641789244897
16 0.001485651260108434 0.0005962055943379199 -0.005027968514786476
17 0.0016534507777979195 0.01223167650785239 0.0007620275139069681
9 -0.004207842358426379 -0.004521993434422407 0.0007815850439469923
10 0.0013664349709967324 0.008479911231049683 0.001479372435272021
1 -0.004577298491256489 -0.005245733799620476 0.0007566726796871545
11 0.011039601667874792 -0.01016263981498465 -0.00030555085947343874
5 0.0018434691481066102 -0.005814592400059027 -0.008219215234194416
4 -0.0006295342940315256 0.0007856955433049414 0.010455266053559547
3 -0.0008097092658191623 0.010990270537787221 0.002112210479227469
6 -0.006748535395410733 -0.007579231798828534 -0.004656578923911842
7 0.00062458787788596 -0.003569783145437353 0.00020449838431769305
12 0.003283494698553779 0.00011624653162278643 -0.0016104761775572647
13 0.002551442844642336 -0.000720544859623188 0.004012616968394375
66 -0.004476090389088203 -0.0022079129935646574 -0.005119142807705933
67 0.004292304004921232 0.004630263260890916 0.0014827518385195128
68 -0.0036215484957777978 0.004351301773094745 0.004698443831953707
69 0.0006048205256525978 0.010483321145129244 0.008905956463181482
