LAMMPS data file via write_data, version 22 Jul 2025, timestep = 40000, units = real

70 atoms
3 atom types

0 7.401 xlo xhi
0 6.40945401340863 ylo yhi
0 40.32963854382093 zlo zhi
-3.7005 0 0 xy xz yz

Masses

1 12.01099999691024
2 28.08499999277529
3 6.939999998214724

Atoms # charge

19 2 -0.02974132797530556 0 0 0 0 0 0
20 2 -0.006640962530391491 3.7005 0 2.3516919839766413 0 0 0
21 2 -0.0061024491079776 3.7005 2.136484671136209 3.1355893119688565 0 0 0
22 2 -0.01137098017029069 3.7374978800427052 2.133741295895274 5.5007405233502755 0 0 0
23 2 -0.01288757719509681 1.807820707990354 1.1315062616476133 6.376064515263827 0 0 0
31 2 -0.02972954318659113 1.8502499999999986 3.2047270067043145 0 0 0 0
32 2 -0.006610495239754815 5.550749999999999 3.2047270067043145 2.3516919839766413 0 0 0
33 2 -0.006114316063583856 -1.8502500000000701 5.341211677840524 3.1355893119688565 1 0 0
34 2 -0.01142502255241466 -1.8493328370793778 5.31594250405558 5.517655206780209 1 0 0
35 2 -0.01286503504332257 3.7232326124814135 4.247586751732488 6.3367572960314815 0 0 0
43 2 -0.02975971937532421 3.7005 0 0 0 0 0
44 2 -0.00660748454832046 0 0 2.3516919839766413 1 0 0
45 2 -0.006086321861891236 -4.304181085619992e-14 2.136484671136209 3.1355893119688565 1 0 0
46 2 -0.01153735000303498 -0.02625797104940328 2.157861616282644 5.529251559364412 1 0 0
47 2 -0.0129361935476644 5.57326528698363 1.0353972571062213 6.417558302449509 0 0 0
55 2 -0.02972199096156347 5.550749999999999 3.2047270067043145 0 0 0 0
56 2 -0.006595988388222436 1.8502499999999986 3.2047270067043145 2.3516919839766413 1 0 0
57 2 -0.006095599057335056 1.850250000000001 5.341211677840524 3.1355893119688565 1 0 0
58 2 -0.01150315328630894 1.8482978119945541 5.313204925672636 5.54022805780174 1 0 0
59 2 -0.01292673773240113 -0.02406281211510127 4.238223883997007 6.370715493616529 1 0 0
24 2 -0.0110126791025625 1.7541223437836997 1.1878362342681144 8.744465318931198 0 0 0
25 2 -0.00699373747077791 -1.8743233788506108 3.270841540477725 9.604625752975888 1 0 0
26 2 -0.007949127392704449 3.58006526236306 0.15847607732956426 12.110490820773968 0 0 0
27 2 -0.0203924138826286 3.7105303840419324 2.2316442636720626 13.203360029154638 0 0 0
36 2 -0.01109246281343543 3.6580043735055523 4.289071349159447 8.723620699179898 0 0 0
37 2 -0.006856366427874948 3.618094001206315 0.08027391257115626 9.647976573734342 1 1 0
38 2 -0.007290642360400714 5.450635828380463 3.24021372791049 12.063232366929004 0 0 0
39 2 -0.01989819765178508 -1.8149276636242972 5.370854854294645 13.150071062169511 1 0 0
48 2 -0.01036775339649239 5.490838340529869 1.095392614827981 8.787999549546225 0 0 0
49 2 -0.006902765915024229 1.8148818275222491 3.244601998832268 9.634550225686908 1 0 0
50 2 -0.005319970164989599 3.7495926172618015 6.305322690800387 11.937176248798119 0 -1 0
51 2 -0.01357897085234257 0.016560375125506167 2.1248623237613224 12.709620002333825 1 0 0
60 2 -0.01041856155378799 -0.029255920885083806 4.3517707683299 8.780055730523259 1 0 0
61 2 -0.007084698230751034 7.297425536849737 0.030756833120381053 9.58720065461495 1 1 0
62 2 -0.005677793229612839 1.9890666249491913 3.220009228448012 11.97674923777358 1 0 0
63 2 -0.01348690072685051 1.8306113961053656 5.421627614308536 12.696541252961321 1 0 0
28 2 -0.01691791384674655 2.9397635045742403 2.956946779990158 15.517967921670166 0 0 0
29 2 0.01968263000669139 1.400603323019275 1.6948620052582686 16.836239090639797 0 0 0
30 2 0.03346883056044161 -0.6446353627753105 3.343018795836018 17.313273109540884 0 0 0
40 2 -0.01844071759126735 -2.558156127791175 6.219013634746058 15.475816144217337 1 0 0
41 2 0.01307888333025988 3.185862485438113 5.052713917752723 16.65638280405798 0 0 0
42 2 0.03362387471037782 4.876487781379419 0.24746639800163991 17.264927788967096 0 1 0
52 2 -0.02565411172077756 -0.2163710690328017 2.244772458391295 15.102970930386999 1 0 0
53 2 -0.02409706408413321 5.059357351032088 1.4684650254329559 15.174852268652362 0 0 0
54 2 0.03150285862789825 4.513020241592252 2.6607815012872926 17.232658520114587 0 0 0
64 2 -0.02630350673290846 1.548673417532796 5.4987300166045925 15.020357637835453 1 0 0
65 2 -0.02278105496140357 -0.6201497185576158 4.668832342575208 15.25729305432094 1 0 0
66 2 0.03598841777888886 -1.0155659100677152 5.836732660434188 17.302503585122345 1 0 0
11 1 -0.03344320757108549 -1.3046104739390556 5.913130446483193 20.484032207249065 1 1 0
12 1 -0.03263382558045044 3.641694579266055 0.21416764360165266 20.520435896609676 1 2 0
13 1 -0.03227577533545642 3.5741743958738703 1.6113971704133143 20.49759101400695 1 1 0
17 1 -0.03298882872016702 1.1958030106231405 5.90794721351552 20.47122854967537 1 1 0
2 1 -0.02993826391063554 -0.08160397953339907 2.3601252424810735 20.370077566499745 1 1 0
3 1 -0.02864973696717557 4.818289846156499 3.73349195620153 20.391587708499316 0 1 0
4 1 -0.02791669889975602 -1.3301932365429232 4.435802913306539 20.38114548193591 1 1 0
5 1 -0.02497511890576707 3.6319387947313895 5.955607313741591 20.301755355774848 0 1 0
6 1 -0.02697534381659619 1.1752636479541512 0.20880641798151559 20.365005334425703 1 2 0
7 1 -0.03127773039866907 1.1503169930044483 1.623457866426554 20.42187092637384 1 1 0
9 1 -0.02077733992018843 -0.08777083508311172 3.759441214823695 20.278628384222497 1 1 0
14 1 -0.03113029588098463 4.80046972858297 2.3443299801303987 20.440188220446423 1 1 0
18 1 -0.0272173245998312 6.107045774991238 0.21316777452673433 20.353783312130613 1 2 0
1 1 -0.03076497991681039 6.0905182640281526 1.655207532721553 20.39412946888513 0 1 0
8 1 -0.030121094376383 2.3634352656012023 2.3538310142944088 20.445125192934626 1 1 0
10 1 -0.02581755088231149 1.1635778618380337 4.467091006068348 20.363163683975426 1 1 0
15 1 -0.02807725323909535 2.394889228576491 3.72294137038274 20.38989789832597 1 1 0
16 1 -0.02928104699278564 3.6365397047936874 4.443735124552659 20.37385286740758 1 1 0
67 3 0.2294576801477851 5.6136254748205365 0.46999378122530483 23.506972158368296 -1 3 0
68 3 0.2344157057758668 0.2174455222224964 2.748439940604051 23.42046960881625 -1 3 0
69 3 0.2320057180196759 -2.6412243680350573 5.796102396395917 23.444815651828428 0 2 0
70 3 0.2268124748923164 3.467816023478194 3.110632548002152 23.594990720806397 -1 3 0

Velocities

19 0 0 0
20 0 0 0
21 0 0 0
22 -0.0006598767735518831 -0.002506379088694906 -0.0004985290370697038
23 -0.0015371315554572615 -0.0029395515696134644 -0.001285886402176202
31 0 0 0
32 0 0 0
33 0 0 0
34 -0.001052952503464205 -0.003538073110659964 0.00037387079828648254
35 -0.0016049194849040093 0.00021807343113670275 -0.0001101149286498762
43 0 0 0
44 0 0 0
45 0 0 0
46 -0.0003669238793864453 0.0005295043576956381 0.0017690949011499957
47 0.004726226289176715 0.0017526067104611923 -0.001422625138110072
55 0 0 0
56 0 0 0
57 0 0 0
58 0.001580016219293572 0.000746766734786916 0.007642884457658172
59 -0.004071096441498469 0.0007691684019215021 0.004977983235675527
24 0.002122347954987175 -0.0067647294950404675 -0.0014132915017909312
25 -0.0014398105566280075 0.0036460846828897907 0.0002117582844694422
26 -0.00463779621191542 0.00103885905163625 -0.0007838889939294748
27 0.004256803534011973 -0.007450061128840251 -0.003281801610533345
36 -0.00202368023475545 0.0026590653895216688 -0.003243074247628142
37 0.0003297665806280338 -0.0034943142292591894 -0.002416835701911915
38 0.0014668964982550022 -0.00369286870572687 7.244274673241755e-05
39 -0.0006373695310396478 -0.0022626559318569875 -0.004011873434950273
48 -0.0012282671768760202 -0.0013458273855019851 -0.002631413568274253
49 0.003049640220002725 -0.0008253317647998929 0.002460579408100375
50 0.002152557029040041 -0.0019519190488702916 -0.0034987233021995137
51 0.002142232355549674 -4.715509337399455e-05 0.0015083080087349703
60 -0.0006324744777139366 -0.0003086709301090923 -0.0020852804744052045
61 0.00040607709642938083 -0.0018437943961655604 -0.0037701987069331815
62 -0.0011694976394703526 -0.0010333792438860616 -0.00013030531874606125
63 0.0004578376129285612 0.004216288543545717 0.002513373402602483
28 0.006354150074463095 -0.0005157339322859596 0.0011966755151839807
29 0.0012323988236116609 -0.0008166562028983885 -0.004687496524541045
30 -0.005236273006002101 0.0009161775239414995 0.0033308889062186875
40 -0.0018083166438921277 -0.0011562231502633624 -0.0008369766127956905
41 0.0028628939721046325 -0.0012192964967194463 -0.0017148073474708416
42 0.008227381232145259 0.001437212144409391 -0.0027394670151293264
52 0.003170043296541114 -0.0035596760054227477 -0.0026477379645158242
53 0.00021206068095726697 -0.005008754423476569 -0.00545848493873685
54 0.0002690481663474326 -0.00014030382181747823 0.0025160835541807175
64 0.002659910020847181 0.0016638546760275811 -0.0021229404500292853
65 0.0002976912759486825 -0.007563981263950409 -0.0059628710399588355
66 0.0003626227036381095 -0.0010766060708443453 0.0015019802243113579
11 0.0012086174273582024 0.0002357221189631309 0.0004812507380303881
12 -0.00428248758686021 -0.0067733785594072905 0.0028589340092775835
13 -0.006039764014678999 -0.0039349747931350446 -0.00130461072023379
17 0.005491769363573555 0.0066226249698051725 -0.002593891896508354
2 0.0021321883437610063 -0.0051513887211479086 -3.177386997043052e-05
3 -0.004125632926516909 -1.1418092489585337e-06 0.0010271293030187766
4 0.0008597122891147518 -0.00042193660858413326 -0.005078574326174096
5 -0.003489643232821742 0.009412271713202849 -0.0014208298495095467
6 0.00886888223731217 0.005728274175494372 -0.010190106712722849
7 -0.00467177075385174 -0.0012560601866732847 0.004491377903044088
9 0.003951435308319464 -0.006668302868071524 0.0010759509628134572
14 -0.0009337871367266912 -0.0058682705420469595 0.00444772319367089
18 -0.000607806545122948 0.0020854446997654575 -0.0048783949013005735
1 0.007527390382392831 -0.0021253239599310584 0.0037685924023806374
8 0.003145803255458532 0.007928653997589635 0.001422369376290626
10 0.0016374754968639215 0.0025929498817734856 0.00114882944826953
15 0.002285508938185196 -0.0031904394801115753 0.007260679046650645
16 0.004381829210214468 0.008696360901291233 -0.0024846541070269834
67 -0.012078299281138108 0.007095217489784977 0.0007460788201045928
68 -0.0021814523645609886 -0.0015098845746490848 0.0078032061974323405
69 0.006714263308361716 0.002620575363964934 -0.00011058682976116973
70 -0.0018918674833346063 0.0018794896664323351 0.003122836215693817
