LAMMPS data file via write_data, version 22 Jul 2025, timestep = 500, units = real

70 atoms
3 atom types

0 7.401 xlo xhi
0 6.40945401340863 ylo yhi
0 40.32963854382093 zlo zhi
-3.7005 0 0 xy xz yz

Masses

1 12.01099999691024
2 28.08499999277529
3 6.939999998214724

Atoms # charge

19 2 -0.03124030428380787 0 0 0 0 0 0
20 2 -0.007105198972665081 3.7005 0 2.3516919839766413 0 0 0
21 2 -0.006891958873478997 3.7005 2.136484671136209 3.1355893119688565 0 0 0
22 2 -0.01173331532349173 3.693682375071671 2.1000085038596468 5.4744790333371265 0 0 0
23 2 -0.01225126268732484 1.832454805341375 1.0472488150374606 6.336727017956903 0 0 0
31 2 -0.03123235361207715 1.8502499999999986 3.2047270067043145 0 0 0 0
32 2 -0.007113711538641691 5.550749999999999 3.2047270067043145 2.3516919839766413 0 0 0
33 2 -0.006878718061502217 -1.8502500000000055 5.341211677840524 3.1355893119688565 1 0 0
34 2 -0.01169496866244788 -1.8520227832211957 5.3184405208226515 5.480261839092904 1 0 0
35 2 -0.01221540021108876 3.668964075976047 4.234820888525065 6.28168870286599 0 0 0
43 2 -0.03123760318576287 3.7005 0 0 0 0 0
44 2 -0.007109962625690142 0 0 2.3516919839766413 1 0 0
45 2 -0.006885060623544448 -3.1905219207336206e-15 2.136484671136209 3.1355893119688565 1 0 0
46 2 -0.01172031890037709 0.009225287305960693 2.0958125027958454 5.485361874340466 1 0 0
47 2 -0.01221881793708558 5.548224178882779 1.0582106653241272 6.324738279758224 0 0 0
55 2 -0.03124327480821484 5.550749999999999 3.2047270067043145 0 0 0 0
56 2 -0.007102411875564442 1.8502499999999986 3.2047270067043145 2.3516919839766413 1 0 0
57 2 -0.006895104695702952 1.850250000000001 5.341211677840524 3.1355893119688565 1 0 0
58 2 -0.01167250188027687 1.8237905119225386 5.325002014764739 5.448730955791912 1 0 0
59 2 -0.01224098303403454 0.009044078413555921 4.248351565341987 6.3430644699379135 1 0 0
24 2 -0.011184954822885 1.8176016328890474 1.0786806260758484 8.675495194322899 0 0 0
25 2 -0.0100206261809416 -1.8261543012861587 3.1742103063441114 9.496962748636355 1 0 0
26 2 -0.007649123948489535 3.718822662475144 0.029275775511070815 11.87774458990736 0 0 0
27 2 -0.01143835769790735 3.740845693000989 2.1652549476017127 12.753858789869485 0 0 0
36 2 -0.01116967704306836 3.7561217401311158 4.251995606933571 8.635079518818504 0 0 0
37 2 -0.009930575912159054 -0.08595998689677571 6.376536700454105 9.530839276661583 1 0 0
38 2 -0.007726686132467376 -1.8653704448037576 3.2621888130970924 11.823537502612647 1 0 0
39 2 -0.01175156835784216 -1.8939283968663856 5.380442937958947 12.70216890860549 1 0 0
48 2 -0.01109295813720499 5.480470125352811 0.9916023999380943 8.698186803930362 0 0 0
49 2 -0.01005429696242034 1.8626305509647658 3.229860861561036 9.478525315895022 1 0 0
50 2 -0.00849577893177776 7.367205415574194 0.013349606524066882 11.803166482168008 0 0 0
51 2 -0.01103805106174344 -0.020328709932081218 2.1925148429917103 12.568382447486814 1 0 0
60 2 -0.0111212591405735 0.0036510005312211597 4.282436227400059 8.657513609894066 1 0 0
61 2 -0.01010465601628158 3.68526899420734 6.402127209137865 9.492567323185922 1 0 0
62 2 -0.007743389231658195 1.907474416680276 3.1967693572167133 11.82682779208064 1 0 0
63 2 -0.01162363147114643 1.8569779364936656 5.336101401881633 12.651830510099874 1 0 0
2 1 -0.02736464529615201 1.0081264351304342 0.8584706018185441 20.619008280953523 0 0 0
3 1 -0.02530425971781693 5.951031469423055 2.2047615960207563 20.52454077843763 -1 0 0
4 1 -0.02665421762202758 -0.14541296695189762 2.9177555450284745 20.48906397587442 0 0 0
5 1 -0.02865443497797797 4.7736076269992465 4.337990384996973 20.60667172034963 -1 0 0
6 1 -0.02350421489071577 -1.3940633601585233 5.074121684551702 20.43283217349496 0 0 0
7 1 -0.01079764821903466 2.2337177234499066 0.10008931302363404 20.298609262817394 0 0 0
9 1 -0.03405175410207868 1.0451651900894623 2.2716607001611537 20.65849778111916 0 0 0
11 1 -0.005663373741434669 -0.1978581002868722 4.365727883623191 20.035052575168177 0 0 0
12 1 -0.0008002771713674752 1.074736739896842 5.038161601204986 19.837363399979782 0 0 0
13 1 -0.007054861273835927 4.745731907274604 0.07292298825352049 20.081200893001725 0 0 0
14 1 -0.01687758081784943 5.962901140129102 0.7827978048042584 20.378216912988396 0 0 0
17 1 -0.005560361862062686 2.3869291900438894 4.320105197221784 20.065981651534702 0 0 0
18 1 -0.02191438429019544 3.52904234581556 5.053230987110744 20.480133987876474 0 0 0
28 2 -0.01963572568350382 3.7107976688059368 2.1507360928671293 15.104347227955047 0 0 0
29 2 -0.009412790405064948 1.8429241441392805 1.087648619999649 15.95976048051498 0 0 0
30 2 0.02884399863146413 1.1772490721812383 0.52361110832446 18.15190979124041 0 0 0
40 2 -0.02033562412390092 -1.8240208532043116 5.413650997146525 15.100498064253214 1 0 0
41 2 -0.00894289720304658 3.8080537281646016 4.300628329360209 15.985209729182268 0 0 0
42 2 0.02690654366240712 3.8504416965229926 5.0031527048582625 18.245423300939756 0 0 0
52 2 -0.02051503312056288 0.00819220975477907 2.222984270145843 14.93639824141611 1 0 0
53 2 -0.01065630753080722 5.540657677427899 1.094162707161206 15.928391260328253 0 0 0
54 2 0.02351401928946642 5.868861682424351 1.1433132074658734 18.277731963402317 0 0 0
64 2 -0.02181523003454985 1.98649666552625 5.373001815885425 15.025891273248174 1 0 0
65 2 -0.01360281007080316 0.06704692319973418 4.3570485731248985 15.875049543403097 1 0 0
66 2 0.01906246685651779 0.4954927501605728 3.58252033342194 18.14165751448915 1 0 0
1 1 -0.0349488873001132 7.160411815901351 0.10201778095474813 20.695966729188758 -1 0 0
8 1 -0.02089720185642972 3.4921552094318793 0.7649695063144484 20.41401665396872 0 0 0
10 1 -0.01991569389081405 2.2693906189320696 2.9073691040378287 20.425975335808673 0 0 0
15 1 -0.02419352215644436 3.509592597927184 2.1802532945763518 20.542309561709587 0 0 0
16 1 -0.03203456619091221 4.723976415100114 2.9414109609450683 20.658063156286982 0 0 0
67 3 0.2083996759981159 1.361845046519812 2.064596488372542 24.27420260692988 0 0 0
68 3 0.2172441737019449 -0.6799750988229033 3.794467072999387 23.867170605526525 0 0 0
69 3 0.2026946870818585 5.661850715034899 1.5740155710947092 24.419735845270846 0 0 0
70 3 0.2032715611690747 3.6448394849427155 3.997547194686253 24.92348755427164 0 0 0

Velocities

19 0 0 0
20 0 0 0
21 0 0 0
22 -0.002361116605291322 -0.0014137718919328113 -0.002494370070032972
23 -0.0018219386690640806 0.0014586885408814302 0.0023229629760888647
31 0 0 0
32 0 0 0
33 0 0 0
34 -0.00012403918550740056 -0.0022181852178705928 -0.0004474579869593195
35 0.0022115927417751136 0.0033016837803665116 0.0020623517975628908
43 0 0 0
44 0 0 0
45 0 0 0
46 -0.002215778069577885 0.0011597246494023834 0.0007358820874503593
47 0.0004973652445593341 -0.0004988479903772367 0.00232433559122089
55 0 0 0
56 0 0 0
57 0 0 0
58 -0.000404597646024045 -0.0022312265567614774 0.002029772036063675
59 -0.0035559914288642055 -0.0004526262658906727 0.0011347396765421707
24 0.0019674104635843456 -0.0012804214796289625 -0.0006351680570270664
25 9.23742671223823e-05 0.0013155156139923133 0.0001357145257022964
26 -0.0009198780849789277 0.0004390147883548721 0.0012986655122452764
27 -0.0018630051953054023 -0.001989753316197378 -9.815411219577255e-05
36 -0.0004014791606060286 0.00098858713367829 0.0018462878452268467
37 0.0010364231739983605 0.0017786899300566285 0.0006316406204233941
38 0.0013283038056822556 -0.0006023627792132563 0.0008973921672144738
39 0.0017614726291558234 0.0014400708611615272 9.239091412494867e-05
48 0.002248386967600771 0.002212531607964782 -0.003210948866604513
49 -0.0013682421131219625 -0.0011273623413222136 -0.0013857314267664354
50 0.003951921425423599 0.002166001803671963 0.003721978868263915
51 0.0024821944370158775 -0.0008751833692774442 -0.0010423595256004033
60 0.002374561919820784 -0.0004566311403560641 0.0012891898308921412
61 -0.00036852659318038967 0.0015398654776058779 -0.0023182550896073497
62 0.000624958086626925 -0.0002831690574028571 0.0018772638896703813
63 -0.0010470015470288863 0.0009490045949131305 0.0016196137039564463
2 0.002032607579836873 0.009463094548188607 0.015380672868314937
3 0.0015611665290239636 -2.9614855298152223e-05 0.01718092255897242
4 -0.007668953104410945 0.0032509213705420393 0.01356269518670609
5 -0.00027154199763248447 0.0024640783391533844 0.0004742033398678801
6 0.005684024687268982 0.0069345176849508255 0.004272286642631853
7 -0.002549363529740232 0.0009651144565225677 -1.686597322545932e-05
9 -0.0017072676627174705 0.004602711178853675 0.018802011274649026
11 -0.0021099758365821686 3.624161113851266e-05 0.0015732755202224023
12 0.002134819940484903 0.0032506843346384933 -0.00030708693348788593
13 0.0020716236261614607 -0.0040284653472533885 0.00930841714202769
14 -0.00039907415093906867 -0.001810263301359767 0.012599068814475485
17 -0.0025914981354803147 -0.0057688191312996635 0.011604840279954802
18 0.004721170916525692 0.0030762311752790695 -0.0022531192454508346
28 -0.0004062900676177107 -0.0004525292834076331 0.0018251568622155378
29 -0.0033634963042083214 -0.0012876799750251313 0.0018404765126628143
30 -0.016335000176936898 -0.005768393748304881 -0.006604188461711978
40 0.0010879006761932034 -0.001947776483274705 0.0020111147087089032
41 -0.004235761767968519 -0.0030912096479460173 0.006560981009130208
42 -0.007658359010490244 0.013131010720389719 0.001327583720297127
52 -0.0005720598341885073 -0.001082871407034345 0.0019632997247274
53 -0.0006232384203843461 -0.00013720597867307265 0.003724424991416724
54 0.012495403335970467 -0.004645400678402531 -0.004407647078675724
64 -0.0008695291818747866 -7.357923541909407e-05 0.0043837950564562566
65 -0.0019351832774034843 -0.0014388537821432876 0.004775689872483491
66 0.005110529159375904 -0.0060899643916066774 0.005287774783406545
1 0.002244029366630855 -0.002387083430384988 0.003921845645459261
8 0.0003507612671296597 -0.002177017942576979 -0.005482558160024437
10 0.002182766639044334 0.008201791696517064 0.008439956282029397
15 0.003975689353685532 -0.004707661258523973 0.003342150521520036
16 0.0035403355675394437 0.004667379457683998 -0.001438687732722188
67 0.012724063247965581 -0.013006992611352243 0.004230579547740249
68 -0.008263191520871483 0.005002807765592248 -0.0029268841894352997
69 0.0049666446870797855 0.013518610244234818 0.007893705876282596
70 0.0042191098386062985 -0.012289631570908465 0.002429406324580276
