LAMMPS data file via write_data, version 22 Jul 2025, timestep = 500, units = real

74 atoms
3 atom types

0 7.401 xlo xhi
0 6.40945401340863 ylo yhi
0 40.32963854382093 zlo zhi
-3.7005 0 0 xy xz yz

Masses

1 12.01099999691024
2 28.08499999277529
3 6.939999998214724

Atoms # charge

18 2 -0.04448605405921859 0 0 0 0 0 0
19 2 -0.009790178567670482 3.7005 0 2.3516919839766413 0 0 0
20 2 -0.009307077437192765 3.7005 2.136484671136209 3.1355893119688565 0 0 0
21 2 -0.01682167267788846 3.701648673085146 2.1136689147807806 5.445944171086682 0 0 0
22 2 -0.01798319390417401 1.8540097124978616 1.0593819358505345 6.283482000431257 0 0 0
30 2 -0.04448435985142243 1.8502499999999986 3.2047270067043145 0 0 0 0
31 2 -0.009797977769939277 5.550749999999999 3.2047270067043145 2.3516919839766413 0 0 0
32 2 -0.009295427776319646 -1.8502500000000055 5.341211677840524 3.1355893119688565 1 0 0
33 2 -0.0169287021927332 -1.843167129820859 5.332370291041316 5.4762450440241235 1 0 0
34 2 -0.01797872690479385 3.714030402637833 4.248710354435751 6.269451735012265 0 0 0
42 2 -0.04449082324599349 3.7005 0 0 0 0 0
43 2 -0.009796834068648603 0 0 2.3516919839766413 1 0 0
44 2 -0.009305908596029111 -3.1905219207336206e-15 2.136484671136209 3.1355893119688565 1 0 0
45 2 -0.01689385382797206 0.009808471620167285 2.1549591714033784 5.4605258489109625 1 0 0
46 2 -0.01795602808686544 5.569083834277395 1.047672447969627 6.261629517120456 0 0 0
54 2 -0.04448873599391526 5.550749999999999 3.2047270067043145 0 0 0 0
55 2 -0.009799405483754414 1.8502499999999986 3.2047270067043145 2.3516919839766413 1 0 0
56 2 -0.009301241599288822 1.850250000000001 5.341211677840524 3.1355893119688565 1 0 0
57 2 -0.01689856065451698 1.8837719486080557 5.322526347164666 5.464768222495494 1 0 0
58 2 -0.01798012537157681 0.009822276918927812 4.270976351216067 6.300267883282169 1 0 0
23 2 -0.01481146576022135 1.8589236622875414 1.0408567059966831 8.606658669248352 0 0 0
24 2 -0.01245149832311838 5.543468142127274 3.208566606644466 9.448568409361926 0 0 0
25 2 -0.01309422223481514 0.026408303343909437 6.391071252930205 11.761917678297442 0 -1 0
26 2 -0.02036068131455937 3.6914013012704974 2.1370234842456286 12.557388264852031 0 0 0
35 2 -0.01485473205194521 3.6651268471938976 4.243654874446586 8.602372705582557 0 0 0
36 2 -0.01250743875012051 0.02110853810355644 6.396072256806129 9.432741350160152 1 0 0
37 2 -0.01289171909277805 5.520429063318755 3.2123710947842006 11.758263590568985 0 0 0
38 2 -0.01915424566466244 -1.8533789594502885 5.364612965310763 12.577376424816123 1 0 0
47 2 -0.01487000138636723 5.545316025483756 1.0822756256763475 8.577876018715157 0 0 0
48 2 -0.01227651696253141 1.8224577409896061 3.1600239156109264 9.478483862794665 1 0 0
49 2 -0.0120360547413362 -0.0008642822621173817 0.019354744321723873 11.769918489223132 1 0 0
50 2 -0.01973316194901614 -0.04242912309024486 2.138382965479139 12.634781489013873 1 0 0
59 2 -0.01473982505029396 0.006170646946419167 4.270177971597819 8.628398027538301 1 0 0
60 2 -0.01242239144231621 3.6880214948581798 6.399347326422014 9.423873711824006 1 0 0
61 2 -0.01296197324729352 1.8160424443289747 3.208189739602073 11.800569894681828 1 0 0
62 2 -0.02011581518902844 1.8724534811794804 5.332211084172746 12.630203243806754 1 0 0
1 1 -0.02809274116303416 3.7157191848381346 6.329173505239768 19.999508385163647 -1 -1 0
2 1 -0.02591065816239424 1.1613024491068396 0.6816365281548825 19.95469138646718 0 0 0
3 1 -0.04745299259918394 -1.0730677594271014 2.1016353193015602 20.31858048035011 0 0 0
4 1 -0.02533887295468417 0.03809201854446274 2.7698127532213315 19.893060784703156 0 0 0
5 1 -0.05903800115033844 -2.4949500110708023 4.323035082194488 20.629472450493882 0 0 0
6 1 -0.04335798901075148 -1.306289302712582 4.9942095305071526 20.389974129463006 0 0 0
7 1 -0.05947015864834657 2.3203518619508183 0.010753476851000338 20.48608530399668 0 0 0
8 1 -0.06541593072705559 3.6339235461490573 0.7185723809998733 20.59100539930505 0 0 0
9 1 -0.0001874063299999166 0.9740422749005444 1.9381352161958842 19.423351572373384 0 0 0
10 1 -0.01793504563244478 0.09182418791433586 4.146040376682746 19.824751024401284 0 0 0
11 1 -0.02407322473316295 1.3671491829118236 4.996647526272978 19.843013593221137 0 0 0
12 1 -0.02060142304452533 5.01262000507066 0.041234883634851595 19.990586887608252 0 0 0
13 1 -0.0274918322066741 6.191255507145207 0.6948587651986359 20.043979743848404 0 0 0
14 1 -0.08794958032185568 4.009073441924253 2.028303091528317 20.87009105656199 0 0 0
15 1 -0.07440287913760142 4.964936605850542 2.9345897262931273 20.828644693465648 0 0 0
16 1 -0.008961802358254977 2.6189886214229507 4.454155640689542 19.63804443016135 0 0 0
17 1 -0.01587315975231507 3.8204645769185257 4.888322099821883 19.976466620708308 0 0 0
27 2 -0.02501840608742365 3.6939530841896118 2.1273486946556974 14.87384259218222 0 0 0
28 2 -0.01027700279080081 1.783652121711375 1.0624708281791908 15.840943777236681 0 0 0
29 2 0.02500548211565848 2.349976719969701 1.272804987266181 18.154409192460022 0 0 0
39 2 -0.02412298093935448 -1.93992674269062 5.343126491645295 14.959374216855661 1 0 0
40 2 -0.005679975309437747 3.6263462271057745 4.277648850513348 15.843920700332829 0 0 0
41 2 0.0293860127697868 3.582422392093485 3.598048218107428 18.124183160355106 0 0 0
51 2 -0.02731213297209561 -0.03901671076373578 2.1676474079969066 14.999586847983094 1 0 0
52 2 -0.007411749169918712 5.553263274815739 1.0763915992315645 15.842734219868301 0 0 0
53 2 0.03334425666462908 5.074247776223198 1.5584002712255465 18.252143948868273 0 0 0
63 2 -0.02677679444348817 1.796207749392076 5.32436206574991 14.983313455778742 1 0 0
64 2 -0.009093509397674596 -0.0641487648720004 4.320746575637751 15.827935213618373 1 0 0
65 2 0.0308086646016096 -0.2874055059414121 5.172083246032216 18.09213785947825 1 0 0
66 3 0.2146825181241818 0.28438278698185215 1.2064070872793775 22.543242231658454 0 0 0
67 3 0.106784975725266 -0.2522966872921593 2.7118747249588067 25.634657331969677 0 0 0
68 3 0.1350645533830017 -1.6493505299669857 5.712828657246246 26.149340809868917 0 0 0
69 3 0.1819675063923796 3.4902219644328687 0.8941402220407476 22.961213492264537 0 0 0
70 3 0.09897213511416643 2.138546655183375 2.7399891406325456 24.11002246874004 0 0 0
71 3 0.1610803014166206 0.25357882434526696 4.653257488763074 23.12220903465226 0 0 0
72 3 0.1295217517082796 4.82567159742104 0.49594672655859 26.05543216248546 0 0 0
73 3 0.1424873847590442 5.432062850024881 2.9062202582942263 23.437599512526933 0 0 0
74 3 0.1112073374985096 3.4282905132741828 5.3877358165334055 24.032752277209845 0 0 0

Velocities

18 0 0 0
19 0 0 0
20 0 0 0
21 0.0007309668965381417 0.0019027390744806244 0.002547327585010798
22 -0.0016154020179563338 -0.0014836213793347154 -0.00044754848395169386
30 0 0 0
31 0 0 0
32 0 0 0
33 -0.00014842945962112038 0.0005587944013404992 -0.001514558510103655
34 -0.0007197043972911322 -0.0008036010839573891 0.0011684730470538766
42 0 0 0
43 0 0 0
44 0 0 0
45 0.0006916510111250876 -0.0003708214620692566 0.00037994999880689074
46 -0.0005808179217285337 -4.193622329284245e-05 -0.0006696204187523378
54 0 0 0
55 0 0 0
56 0 0 0
57 -0.0028259282890490903 0.001665334069835596 -0.0006859390557411713
58 0.0005378331294550475 -0.00029809529361892226 -0.0009796346649104811
23 0.0006420070668333853 0.0004081662398234274 0.0002627496035237287
24 -0.000277379319430481 -0.000588583358925687 0.000374903581760908
25 -0.0007290960792299639 -7.63948155923615e-05 0.0011009646028829077
26 -4.643339817521245e-05 -0.0003587601335006519 0.0008617691667246859
35 0.0001169424161907987 0.0018127132620761003 0.0018454801377784228
36 -0.0015654171229455556 -0.00018256868882627933 0.0010252612107918527
37 0.0007414595002216285 0.0013351047267130731 -8.898832928650667e-05
38 0.0014888240312826938 -0.00033829259562618945 0.0026427463197119423
47 0.0005493392812965926 -0.00042799602496766323 0.000623190364729785
48 0.0010563211018295474 0.001629928102874131 -0.0013234588480664732
49 0.00029101262144985723 -0.001003397349578108 0.0012223630951049944
50 0.0023750355414777127 0.001524716054556501 0.001951765257828741
59 -0.0006378504528254658 0.0005324233359249367 -0.0011075553242328076
60 -0.0005546698956776783 -0.0020946087461836266 0.0016940521768451264
61 5.9460242865559176e-05 -0.0008477623697504657 -0.0008275103755069995
62 -0.00035566832447536743 -0.00017051185139786056 0.00216504479035704
1 -0.005911919685066596 0.005823436309313237 -0.010977607502730403
2 0.00046919694963921526 -0.007831756132823156 0.0062685760022643585
3 -0.0063233225376078395 0.0005051369943450119 -0.0022579435376254096
4 0.0008525884232422517 -0.0015812908779529698 0.0021348056584968383
5 -0.0015720972730173942 0.006297404538974279 0.007272522434568998
6 0.0019507255537966047 -0.0070794653184226165 0.008802914656826859
7 0.0019114592124119976 -0.0025401973096160785 0.009852069442932017
8 0.0018898061171529572 0.00160313631989864 -0.001270784724039394
9 0.009868122163897005 -0.0007866717178250858 -0.004359509983827086
10 -0.010303995515071015 -0.0024128090490617756 0.007840289400598343
11 -0.005019097995652831 0.004780803199237287 -0.0004972729975053677
12 0.0068200847673246644 0.0028577734108740033 0.0022207044872187207
13 -0.006844896847277989 -0.0010691516045382298 -0.006737528946618468
14 0.004068218665748072 0.005245673650327216 0.003037744278357045
15 -0.0011748647773123328 -0.0033499271358358043 0.003247374936906193
16 0.013709676331120772 -0.0040849953939732595 0.005556764579413473
17 0.0004276514873130763 0.0067764560873031215 -0.0037242143487657363
27 0.001075320522099542 -0.0023978109444034237 -0.0020453271363288575
28 -0.001845101504164502 -0.003049647322544156 -0.001864228007542816
29 0.007074959744950008 -0.006415075366016445 -0.006895349182294869
39 -0.0021622059015004753 8.872848026919561e-05 0.003214033588650005
40 0.0011271698334229666 0.003665246083137872 0.0023366994469180714
41 0.007971082393972663 -0.009762326871098912 -0.002264041207814321
51 0.0007527128937067487 0.00016430845178608885 0.0018764584490272291
52 0.0021078230145371813 -0.0026254587208308206 0.006474735790556313
53 -0.01765993715397814 0.011168127221572904 0.0063061195964176755
63 -0.0033362784513237672 -0.0020307377273588436 0.00337698029785854
64 -0.004769765807446637 0.0034366760923196286 0.00293934130995353
65 0.006303815716645907 0.007979795585506797 0.010674636897821796
66 -0.003217394515154361 0.00908295134019687 0.017845058288412322
67 -0.0006772379052277259 -0.005540615248067923 0.019561638918721754
68 0.0030202620967316146 0.005428364756992216 0.013470424026373908
69 0.0019912719581622346 -0.0022036641877724744 -0.0020259879441603132
70 -0.00017859167890603043 0.0017722033812655237 0.013529790144868683
71 -0.004963855744555234 -0.01063498904434558 0.0008195317923496124
72 -0.00955852523114577 -0.007538978528915687 0.011632112255435043
73 0.010887637522653787 0.001997087317652958 0.018638790966353957
74 -0.00031477340857682625 -0.0006515168708778603 0.008871994948325844
