LAMMPS data file via write_data, version 22 Jul 2025, timestep = 40000, units = real

69 atoms
3 atom types

0 7.401 xlo xhi
0 6.40945401340863 ylo yhi
0 40.32963854382093 zlo zhi
-3.7005 0 0 xy xz yz

Masses

1 12.01099999691024
2 28.08499999277529
3 6.939999998214724

Atoms # charge

18 2 -0.03098818354668458 0 0 0 0 0 0
19 2 -0.006733218561803912 3.7005 0 2.3516919839766413 0 0 0
20 2 -0.006284456395478804 3.7005 2.136484671136209 3.1355893119688565 0 0 0
21 2 -0.01246169297164229 3.6178297627666183 2.1448169756582507 5.498380254690387 0 0 0
30 2 -0.03094014756259184 1.8502499999999986 3.2047270067043145 0 0 0 0
31 2 -0.006807691489004281 5.550749999999999 3.2047270067043145 2.3516919839766413 0 0 0
32 2 -0.006332605553894401 -1.8502500000005624 5.341211677840524 3.1355893119688565 1 0 0
33 2 -0.01200794733302951 -1.9140501346309877 5.233063507059112 5.3328161012744 1 0 0
34 2 -0.01392088318140475 3.5101454715128475 4.31626342877621 6.512528998659769 0 0 0
42 2 -0.03100902402574136 3.7005 0 0 0 0 0
43 2 -0.006764801154691483 0 0 2.3516919839766413 1 0 0
44 2 -0.006213523676869388 -3.4665111522021634e-13 2.136484671136209 3.1355893119688565 1 0 0
45 2 -0.01296694527387987 0.09425632196579714 2.258052874641841 5.692581666197836 1 0 0
54 2 -0.03101887070901318 5.550749999999999 3.2047270067043145 0 0 0 0
55 2 -0.006697548155758787 1.8502499999999986 3.2047270067043145 2.3516919839766413 1 0 0
56 2 -0.006216741182031044 1.850250000000001 5.341211677840524 3.1355893119688565 1 0 0
57 2 -0.01257785352896329 1.8829253684153509 5.430720808844759 5.521670049261917 1 0 0
58 2 -0.01398498249526566 0.07192432023579186 4.3258207765694525 6.445838303300052 1 0 0
46 2 -0.01391133201641025 5.490960557417461 1.1908626801316256 6.556421067786752 0 0 0
22 2 -0.01380720247518444 1.7195904952141037 0.9754317696411923 6.286486523850399 0 0 0
23 2 -0.01023720161550262 1.8250722757410796 0.9884699354061138 8.73567427218804 0 0 0
24 2 -0.006352465082620381 -1.721430644426649 3.4002361362776745 9.749157182579955 1 0 0
25 2 -0.01134150954586827 3.765727658054441 0.1686335899624147 12.177245670459373 0 0 0
26 2 -0.02013609459153428 3.8961617274947953 2.449737415460747 12.992331590594308 0 0 0
35 2 -0.00945242442736554 3.6630760199961494 4.211779808672862 8.978102554890858 0 0 0
36 2 -0.00701775023250782 -0.01689763993339359 6.3739589476292196 9.636342051847084 1 0 0
37 2 -0.01034000034085623 -1.506923023768148 3.330267958843316 12.042625085335743 1 0 0
47 2 -0.009299209558806049 5.523183156673461 1.0541916169159506 8.939093481480672 0 0 0
48 2 -0.006888933943745857 1.8811052254351839 3.04644601010367 9.611717145494795 1 0 0
49 2 -0.01028765736587122 0.15152687372574278 0.00633587536245573 12.07598016221521 1 0 0
50 2 -0.01996885678526346 0.20854361910303715 2.1308103832742322 12.99564078315941 1 0 0
59 2 -0.01052086875140382 0.1307163357140631 4.409155291680499 8.69005529795372 1 0 0
60 2 -0.006539365330261834 3.702580212867611 6.387283546282459 9.730986672407289 1 0 0
61 2 -0.008827098451607968 1.8878728475278743 3.34375017846435 11.95678113829413 1 0 0
62 2 -0.02104500229624499 1.8485105802961341 5.542058997453913 13.131403875831534 1 0 0
38 2 -0.02152725653658462 -1.7800108165407542 5.480743958514729 13.144915175853315 1 0 0
27 2 -0.01822036089386974 3.617940292690502 2.411411181960626 15.489158890244866 0 0 0
28 2 0.0066358025772316 2.0518052601524057 1.245862003853108 16.495160309512755 0 0 0
29 2 0.02612363522660469 4.262768129660749 1.6998126162160085 17.95791146128207 0 0 0
39 2 -0.00921718402702318 -1.8758890819060545 5.546105390573123 15.748288270801833 1 0 0
40 2 0.01009709278676203 3.568603619654732 4.5299761972952375 16.58570667331461 0 0 0
41 2 0.01834910937424555 -1.9504080619292052 3.9179062182342363 18.222590068597682 1 0 0
51 2 -0.02193321346924283 0.3013176488799513 2.4866732433386565 15.439263846190817 1 0 0
52 2 -0.01324857013549526 5.790923415490533 1.3220737851077773 15.927366802596568 0 0 0
53 2 0.01691516225203582 -0.046601663854105385 2.2754092432179838 17.677648697799665 1 0 0
63 2 -0.01371191849268563 1.8837526342445836 5.513224931342276 15.542228106827858 1 0 0
64 2 0.01262748826578827 0.16404333700592197 4.628834523004281 16.737319761774216 1 0 0
65 2 0.0275435751243235 2.256293577119049 6.200172000016722 17.586997070715558 1 0 0
9 1 -0.0383964103875947 4.241113106251121 2.0371241195251075 20.27692683127657 0 0 0
15 1 -0.02162699623716544 0.6677896211489962 3.0261440475736574 20.035347586921134 1 0 0
14 1 -0.01147328356543664 -0.36917422434212016 2.236505396798491 19.682767968075645 1 0 0
16 1 -0.02689883464606589 -1.8846486747532827 4.708857165199664 20.204732358397358 1 0 0
4 1 -0.03063977501445274 3.1990988745999505 2.9591305699823343 20.308752241054865 0 0 0
2 1 -0.04145561151106157 4.393582221695723 0.7146359694740081 20.468198177810162 0 0 0
5 1 -0.04213441005556128 0.5386244358920299 4.368145438265658 20.44991702988639 0 0 0
11 1 -0.02406121687546926 4.27904950926038 5.234576384829017 20.3168620280887 0 0 0
8 1 -0.02807114111091575 6.798373844235892 0.9157002065407626 20.105761910604432 0 0 0
3 1 -0.0247895477386574 1.9051097916597246 2.3461592448461936 20.21212671778277 0 0 0
6 1 -0.0356705142427722 1.8741590719256565 5.067055674225458 20.499612170774206 0 0 0
17 1 -0.01865552082988492 -0.6135979985850523 5.143579305328932 20.220498083384445 1 0 0
12 1 -0.04078704747376108 0.6335091019740341 0.26444569002796253 20.483309282870984 1 0 0
7 1 -0.03544436458620438 5.633984559044252 0.0548993794168682 20.393329886363787 0 0 0
10 1 -0.03002041581354077 3.13625353431921 4.413319975024994 20.377607555880903 0 0 0
13 1 -0.03274156422800969 1.873322497289905 0.9372833670333385 20.417437668215843 1 0 0
1 1 -0.02047797038646646 3.0533438103634163 0.1144493656483162 20.330094467598673 0 0 0
66 3 0.2029788606902772 2.459912480828326 3.705422071865794 24.520029484894565 4 -6 0
68 3 0.2090402053176534 7.086510683484859 0.4238668164829252 24.562525645904266 5 -4 0
69 3 0.2273832889272632 1.1001298851574828 2.7815292153068367 23.213750103645815 -3 -6 0
67 3 0.29340899732454 5.821597907952977 2.0825041952902 22.401144331354573 0 -2 0

Velocities

18 0 0 0
19 0 0 0
20 0 0 0
21 0.004198879973013068 0.0038628178343007857 -0.0010002622682717158
30 0 0 0
31 0 0 0
32 0 0 0
33 -0.008907808936730615 -0.0005271890358232316 0.015073757783851128
34 -0.0027457573861205506 0.0018218555207573776 -0.0011161669323536327
42 0 0 0
43 0 0 0
44 0 0 0
45 -0.0006231154860518103 0.00877979306051337 0.0063005850723540854
54 0 0 0
55 0 0 0
56 0 0 0
57 0.003667034874705193 -0.0031577777016566434 0.00532046427244686
58 -0.004222241920458994 -0.017409816928928474 -0.011730664407311199
46 0.00904384737781729 0.0015723939904917488 0.0026810216321050497
22 -0.0036679439635584664 -0.00026492228444725634 0.01415256825070481
23 0.0041870976374795595 0.006189658752018632 0.0003791152908249212
24 0.005062817382216212 -0.0069189658262820706 0.005925123426819028
25 -0.007583369486395093 0.006243126992352364 0.007091577573108829
26 0.008066220137693503 -0.0022031285441705354 0.008779129796009802
35 -0.00852840981975442 0.006225124387273295 -0.003062223996415902
36 0.0007445009570207559 -0.005360031494627956 -0.0012890384184808098
37 0.005487387881467678 -0.010146365284874732 0.009794532001001346
47 0.0012722234612333417 -0.003152882281857864 -0.002145521984489996
48 0.0003106304887126848 -0.010911517738047188 -0.0026196007354066654
49 0.004011285051040048 0.005600699007681962 0.003908465114277145
50 -0.007171575408335898 -0.0010845291781316426 0.0027337411356676803
59 0.0008746671437741372 -0.01248013853186691 0.0078543252556975
60 0.0070258072776880065 -0.000462469714140045 -0.0039320765826856485
61 -0.0023582110419957327 -0.004501373619294728 -6.866254040545445e-05
62 -0.006434672700704272 -0.013474271164958392 -0.0032364785437846108
38 -0.01756316892642895 -0.014048626086944615 -0.007726178525823712
27 0.011530469236135172 -0.007019840345557868 -0.0005184817186478536
28 -0.01432020433104734 0.008350162820185556 0.007461208077279852
29 0.011914754545097557 -0.0008262948568039062 0.005190154711273579
39 -0.0035141789240580265 -0.0034395105466711526 -4.162666491190098e-06
40 0.007734319233362914 0.006980492114958728 -0.005690688759978606
41 -0.0006324538259826135 0.0025363183946442687 -0.00088402591321992
51 0.0028035573566268877 0.0023653680155990573 -0.002219667688317654
52 0.003792151498677556 0.005414456504386401 -0.003995666849177896
53 0.0070481116699902015 -0.0020024947097310787 -0.0040322198824489655
63 0.009173642362928744 -0.008145709662064356 0.005067455636309495
64 -0.007925059790063959 -0.0005481063596449106 -0.0008742694060282465
65 0.0016454721349696013 -0.005691734982502486 -0.005318232179713643
9 0.000316950181983727 -0.006602570466370123 -0.0016872682957558174
15 -0.010601107533663029 0.009817691122544341 -0.0031328896789580445
14 0.011541611123837957 -0.002463169765246919 0.0032562725916212613
16 -0.011152340755516799 -0.013619371137120743 -0.0013806191981071787
4 -0.008380685333403982 -0.0015694225399392311 -0.004387634962898423
2 -0.006054590554420393 0.0014919607482906877 0.015643935492486324
5 0.00496189773120747 0.008211307067934525 -0.002323233491301749
11 -0.012347592553999968 -0.005029652469005211 -0.0012200164961084846
8 -0.005681995429820619 -0.0023328117736702647 -0.008752136991381174
3 0.0012448856331794642 0.011882140559066966 0.00906774565812078
6 -0.0030993014537889054 0.005546440427894033 0.007786226325226416
17 -0.0025594432826497975 0.006254667801784551 -0.0019332106757499528
12 -0.014539654106366212 0.0002784603635588135 0.004359100545727442
7 0.002645520885936405 -0.002888575301863365 0.0019132299557484732
10 -0.01789819385566794 -0.002340274061820398 0.0008896088606654628
13 0.001300028029159947 -0.012299488317885493 -0.009251261722627165
1 0.009318789823979242 -0.010245458167505791 -0.008847847916708168
66 0.007141858564887759 0.012479468868092376 0.006271463838688462
68 -0.023736208246506227 -0.012354545650854415 -0.025666416064309947
69 0.00882942042539906 0.011025472240405856 0.017680748880258102
67 -0.0018361826424652045 -0.019126195515124064 0.017959938008341704
