LAMMPS data file via write_data, version 22 Jul 2025, timestep = 40000, units = real

69 atoms
3 atom types

0 7.401 xlo xhi
0 6.40945401340863 ylo yhi
0 40.32963854382093 zlo zhi
-3.7005 0 0 xy xz yz

Masses

1 12.01099999691024
2 28.08499999277529
3 6.939999998214724

Atoms # charge

18 2 -0.02991476282441779 0 0 0 0 0 0
19 2 -0.006553970069565989 3.7005 0 2.3516919839766413 0 0 0
20 2 -0.006165914754439801 3.7005 2.136484671136209 3.1355893119688565 0 0 0
21 2 -0.01172092295579676 3.7289368907363865 2.206609429837009 5.4574234634405645 0 0 0
22 2 -0.0128612635809373 1.9488557888732174 1.0621074131724635 6.3077435093034975 0 0 0
30 2 -0.02993734677947763 1.8502499999999986 3.2047270067043145 0 0 0 0
31 2 -0.006577680300582103 5.550749999999999 3.2047270067043145 2.3516919839766413 0 0 0
32 2 -0.006135923070035698 -1.850250000000094 5.341211677840524 3.1355893119688565 1 0 0
33 2 -0.01193933200072582 -1.7342435010730277 5.349319531496909 5.545803163262567 1 0 0
34 2 -0.01293410001931839 3.7589313243146636 4.445176178027915 6.379005117992729 0 0 0
42 2 -0.02991607640070498 3.7005 0 0 0 0 0
43 2 -0.006575792267740567 0 0 2.3516919839766413 1 0 0
44 2 -0.006158824781833123 -5.783197994565133e-14 2.136484671136209 3.1355893119688565 1 0 0
45 2 -0.01179853498059643 0.05684425543028516 2.1086862616210555 5.493544282649877 1 0 0
46 2 -0.0128954566496944 5.528333963144687 1.146775912795725 6.394967546440809 0 0 0
54 2 -0.02993650942176913 5.550749999999999 3.2047270067043145 0 0 0 0
55 2 -0.00656829366745639 1.8502499999999986 3.2047270067043145 2.3516919839766413 1 0 0
56 2 -0.006104491412950342 1.850250000000001 5.341211677840524 3.1355893119688565 1 0 0
57 2 -0.01199377732404111 1.915674480199086 5.391643808060265 5.5958078018226 1 0 0
58 2 -0.01294202149280336 0.06688799477251724 4.2594603906491315 6.446613297861225 1 0 0
23 2 -0.009907473064920727 1.9372476340551055 1.2419608501747161 8.697069698230196 0 0 0
24 2 -0.007346732713377152 -1.7367779638003362 3.2348543501294 9.567390807639216 1 0 0
25 2 -0.01032733694555572 3.7680211524748692 0.12799454906713784 12.03131140095927 0 0 0
26 2 -0.01745425283440995 3.7220406292266994 2.3173917262379926 12.808525205614945 0 0 0
35 2 -0.009790895742606788 3.811083822924984 4.366987095872609 8.74012908458048 0 0 0
36 2 -0.007336469432938531 3.8115374557130433 0.13323238694633469 9.604340087406197 1 1 0
37 2 -0.00823034702028074 -1.7217343631005002 3.332905274456432 11.922067608185564 1 0 0
38 2 -0.01736135610652741 -1.7600043285635858 5.455103348467765 12.909659023038936 1 0 0
47 2 -0.009674481205634886 5.673086329226537 1.086736418795532 8.804755731045447 0 0 0
48 2 -0.007130413328328387 1.9322183870109586 3.3503775341087727 9.623324835774369 1 0 0
49 2 -0.008591382066555414 0.10144788404176147 0.05913247207248571 12.022363178980028 1 0 0
50 2 -0.01613689145208792 0.0782670669741604 2.1724312680778968 12.834178348067534 1 0 0
59 2 -0.009828133766903963 0.12940395028659685 4.400985893861932 8.777633996862914 1 0 0
60 2 -0.006705244097452683 0.21994532230689404 0.06926395849968868 9.74589980530177 2 1 0
61 2 -0.008640836188966191 1.7664083434131401 3.3282850732815334 11.977858993711012 1 0 0
62 2 -0.01630444848279325 1.9381763478335228 5.4967997184660895 12.798647713227194 1 0 0
9 1 -0.01710455293838572 1.283704343443961 1.790964317355354 19.918424388032424 0 0 0
16 1 -0.004699542691476208 2.5096357417978186 4.31737576967174 19.590062747226796 0 0 0
17 1 -0.01458383936809267 3.7826498463423257 4.7735720579253815 19.872229566120332 0 0 0
27 2 -0.0200948239302056 3.782709737379341 2.0925964723135437 15.145126301250723 0 0 0
28 2 0.0007648670040271673 1.8431787419745633 1.0815742406773443 16.138856460137944 0 0 0
29 2 0.02526115682015114 2.4733241920667433 1.122180399210792 18.375321796814074 0 0 0
39 2 -0.016953786086034 -1.7493232929015907 5.329522985788704 15.275920999641146 1 0 0
40 2 -0.00101837708154809 3.880762224202169 4.1965134065842635 16.147627487746593 0 0 0
41 2 0.01588237781494073 3.6616240521759726 3.326845853871433 18.40289694395603 0 0 0
51 2 -0.01826509834789775 0.048879183361786295 2.2339411182741165 15.25015902460151 1 0 0
52 2 0.002418094262653432 5.6024863882419575 1.0530598630711803 16.036945181671197 0 0 0
53 2 0.03751725349151556 4.829679840645821 1.0758150762888194 18.22525557431507 0 0 0
63 2 -0.01947901288058065 1.973860870540884 5.263973111606847 15.2212474934571 1 0 0
64 2 0.00514595793324357 0.1131837819143435 4.421340618619844 16.24887168524653 1 0 0
65 2 0.03026067316571521 0.13554927290977312 5.376336227631442 18.35878769658935 1 0 0
5 1 -0.003193303092996062 4.990454595264683 4.073241773327615 19.84791260002429 -1 0 0
11 1 -0.02176377130561205 1.3576614775118878 4.830264902615929 20.05795111354171 0 0 0
4 1 -0.02741394223043705 0.17746610789371534 2.5472805079538703 20.180433816667485 0 0 0
2 1 -0.0150123617896538 1.3528393059681456 0.5063046971296328 20.04693354041265 0 0 0
10 1 -0.02020279970144094 0.1502840498872884 4.034838636051238 20.089655142980547 0 0 0
1 1 -0.03382984955984572 3.832031966431848 6.109429199706301 20.298916339965295 -1 -1 0
3 1 -0.03945224386151394 -1.0268491145524734 1.8445013837863613 20.532127616264532 0 0 0
6 1 -0.03999071970336979 -1.2742729037537959 4.668015466347963 20.468285623097895 0 0 0
7 1 -0.04505604408085419 -1.1786502070681535 6.047639604313447 20.594947578244327 0 -1 0
8 1 -0.05043786563776034 3.796534948033305 0.2838392988500189 20.75473585818547 0 0 0
12 1 -0.04469342177714532 1.441005416170037 6.107033889840925 20.581508558598742 0 -1 0
13 1 -0.03981139538003245 6.330697629745561 0.4099483404390974 20.525225980054287 0 0 0
15 1 -0.04098615470403592 5.137259789754663 2.613920898468627 20.552899237020696 0 0 0
14 1 -0.07285741207503584 3.9719944946599632 1.820440040439574 20.87116743738615 0 0 0
66 3 0.2524843910411628 3.088610850774936 3.8922275976714045 22.94979583857427 0 0 0
67 3 0.216283430258032 0.4596799512275631 4.359376395614169 23.755641003226316 1 1 0
68 3 0.222206902697918 5.505329467802516 0.5401067056586314 23.83865952281787 1 1 0
69 3 0.2390729029388217 1.092852312530231 1.3483218145309244 23.280467128126034 1 1 0

Velocities

18 0 0 0
19 0 0 0
20 0 0 0
21 0.00401907797552366 -0.0033233473111424494 -0.005126295494445219
22 0.00032858875843308743 0.0012303407855781576 0.0001255068089636959
30 0 0 0
31 0 0 0
32 0 0 0
33 0.00301836920818544 -0.002080880288015959 -0.00040481615073615534
34 0.0031230737050525867 -0.001572394146987707 -0.005569325468517747
42 0 0 0
43 0 0 0
44 0 0 0
45 -0.0006904386053606084 0.0013274308595012348 9.811054592052893e-06
46 -0.005148137752298133 -0.001997019458330496 -0.0022486994624015375
54 0 0 0
55 0 0 0
56 0 0 0
57 -0.0003784481240029006 -0.0008358283070156697 -0.0022186629712256946
58 -0.0039747801335297695 0.0034760186640689704 0.005479507171151941
23 0.0017438711746252903 0.006562339570269631 -0.002403905952461955
24 0.0021783276358332145 -0.0038744027243917166 0.006288429096776791
25 0.0017774839256062649 -4.399682942718801e-05 -0.0003471164002189114
26 0.002053857766673586 -0.00381901990065029 0.0034433397493072978
35 -0.004057138158746317 0.0036174124722267082 0.0002873892634548333
36 0.0005917443666357682 -0.002712342688675558 -0.0019553995999328257
37 0.004731109366231828 0.0013191884509456593 -0.003741608607455363
38 -0.0008774995204139945 0.0004436620779615427 -0.00335148535188469
47 0.0005615713537588468 0.0017826834506664245 -0.0031611642024762573
48 -0.0008851085882631919 0.0021047253158914263 -0.0035085840430358283
49 -0.002573810334345456 0.0068376521726746685 0.0031233077396918434
50 0.0006989796996032763 -4.20647728664828e-05 0.0018953298298452635
59 -0.0002688628262096437 0.0020542490622226296 0.0006511121989936998
60 0.0022533935563172534 -0.00312440525980477 -0.0050437637943639355
61 3.556493102063574e-05 -0.0018593445095803102 -0.00014046584956944465
62 -0.0015772839803853047 -0.0005449923228231804 -0.0010458541144092019
9 -0.0032794604954745525 -0.0020885066482425685 -0.004839194410549522
16 0.0066127090384125245 -0.007856720755450302 -0.0016295459758187765
17 0.004309123192847887 0.001393142344785729 -0.0015756187205100923
27 -0.0011453663238088004 -0.0011112559299191508 0.0003638285975231363
28 -0.00034940476500162427 -0.0011214490506461043 -0.000652819876413217
29 -0.002778762615027507 0.0022365563891884885 -0.0018534104898669805
39 -0.0048601617730414624 0.0021691928293138068 0.002364806979804871
40 0.0019020582280763131 -0.0011278643070175545 -0.00020909771768577487
41 -0.00012938871522240162 -0.0021912562085722224 0.005990334545888106
51 -0.0004606932498464039 -0.0002199454711718901 -0.000578409051632618
52 0.0013913100647757908 0.0022902327770788836 0.0017917667430573196
53 0.0001155403911060299 -0.0004615156761708313 -0.00016290555010771996
63 -0.0025578526758485813 -0.0032418368692398573 0.00275845765390696
64 -0.0023129900954012785 -0.002577835676554272 0.005064710849876721
65 -0.00422603615109838 9.467946244680255e-06 0.003554110529777037
5 0.004085388780591873 0.0018208651819705227 0.007546512669798235
11 -0.0034498273832548046 0.002697908053565213 -0.001306537399505848
4 -0.005620015046018251 -0.00101298310557034 0.0017412869502229967
2 -0.007460307543384766 -0.0004369389660353471 0.003943634690151804
10 -0.005405786882615384 0.0008329561396362214 -0.003666453663288821
1 0.0027978110699846373 -0.002494152904008082 -0.008281896897476047
3 -0.0005369024747331615 -0.001858252846928735 0.0007880284418747524
6 0.002064959970410716 -0.0016986453671770005 -0.00026718055322385307
7 -0.005071984778434311 -0.007176736114606243 0.003278324749054177
8 0.005608344376529068 -0.0027416011147883826 0.0037065713070391294
12 0.007467842688332889 -0.0037426154872526696 0.0035125465527592503
13 -0.0014976491174833726 0.004461432591762938 -0.000310181970327411
15 0.0058104413889357815 -0.0007613770645129403 0.004265349413827236
14 0.0009385084658351836 0.008825391851117003 -0.00690564518402721
66 -0.002923299794037514 -0.004649442310505811 -0.0035921492640725045
67 0.0073678832961554044 0.004711306660222003 0.0025897391289214414
68 0.0025179263416693137 0.008765050510818807 0.00023047924587030332
69 -0.005689560112001319 0.0028656150368349567 0.004109854418858747
