LAMMPS data file via write_data, version 22 Jul 2025, timestep = 12, units = real

69 atoms
3 atom types

0 7.401 xlo xhi
0 6.40945401340863 ylo yhi
0 40.32963854382093 zlo zhi
-3.7005 0 0 xy xz yz

Masses

1 12.01099999691024
2 28.08499999277529
3 6.939999998214724

Atoms # charge

18 2 -0.02873686214842649 0 0 0 0 0 0
19 2 -0.005673357087385117 3.7005 0 2.3516919839766413 0 0 0
20 2 -0.005011496956323566 3.7005 2.136484671136209 3.1355893119688565 0 0 0
21 2 -0.01186523953333011 3.7005193029994183 2.1364735265443113 5.463772429760068 0 0 0
22 2 -0.01343737714776812 1.850267010507517 1.0682359497564622 6.289983698119427 0 0 0
30 2 -0.0287369225941593 1.8502499999999988 3.2047270067043145 0 0 0 0
31 2 -0.00567335708738495 5.550749999999999 3.2047270067043145 2.3516919839766413 0 0 0
32 2 -0.00501139116978987 -1.8502500000000008 5.341211677840524 3.1355893119688565 1 0 0
33 2 -0.01187525650247063 -1.8502281477481695 5.341199061436788 5.463781600523931 1 0 0
34 2 -0.01343737714776809 3.700514035528791 4.272957803646571 6.289983698119679 0 0 0
42 2 -0.02873682914738255 3.7005 0 0 0 0 0
43 2 -0.005673272828357181 0 0 2.3516919839766413 1 0 0
44 2 -0.005011471621451393 -3.1465570889584643e-16 2.136484671136209 3.1355893119688565 1 0 0
45 2 -0.01186881119342761 -1.942347603665017e-05 2.1364985195077058 5.463820675671263 1 0 0
46 2 -0.01343470119696182 5.550732851925906 1.0682522360133624 6.290102748489364 0 0 0
54 2 -0.028736829147382 5.550749999999999 3.2047270067043145 0 0 0 0
55 2 -0.005673901793869938 1.8502499999999988 3.2047270067043145 2.3516919839766413 1 0 0
56 2 -0.005011471621450992 1.850250000000001 5.341211677840524 3.1355893119688565 1 0 0
57 2 -0.01186881119342873 1.8502282952204518 5.341221574878708 5.463820675671736 1 0 0
58 2 -0.01343947756172063 -1.3897181454166333e-05 4.27297736581388 6.290122660554766 1 0 0
23 2 -0.007418235334732666 1.8503684869608688 1.0681939917309755 8.606197899546586 0 0 0
24 2 -0.003339517068346567 5.550669083143308 3.204762520281334 9.426367859825998 0 0 0
25 2 -0.01054240214201683 3.6997243958887536 0.000764376171634246 11.743840687706674 0 0 0
26 2 -0.0224906448045802 3.700169063780235 2.136675737251771 12.575145395134811 0 0 0
35 2 -0.007418235334732904 3.7006011104715633 4.27289090147294 8.606197899546636 0 0 0
36 2 -0.003339517068346289 3.7004287859117238 5.231926492276225e-05 9.426367859825998 1 1 0
37 2 -0.01054240214201708 5.549700228761703 3.2050165114821083 11.743840687706676 0 0 0
38 2 -0.02202345933513793 -1.8502084521738602 5.341187690191923 12.573587729146436 1 0 0
47 2 -0.007421679102775734 5.550631844935015 1.0683105524266125 8.606392322388189 0 0 0
48 2 -0.003312848742567818 1.850331119372392 3.2046801724128553 9.42571494531759 1 0 0
49 2 -0.01044833555822178 -3.699641966242602 6.408958627387829 11.741868386510212 1 -1 0
50 2 -0.02230862725560918 0.00036981240757403416 2.136386876028091 12.56967101557222 1 0 0
59 2 -0.007413560006144016 -0.00010065207883256986 4.273027453777166 8.606397358810485 1 0 0
60 2 -0.003341296569802295 -3.7004300076020975 6.409413603278908 9.425626348150034 2 0 0
61 2 -0.01059292936717688 1.8513290259074344 3.204104030806185 11.74240868337973 1 0 0
62 2 -0.02230862725560785 1.8505195992517767 5.3409403084549885 12.569671015572185 1 0 0
1 1 -0.05681094751951543 -3.6862320218723728 6.401216392395846 20.15494790146717 0 -1 0
2 1 -0.04628883589869273 1.22845683691479 0.7376391952796624 20.011517143591192 0 0 0
3 1 -0.03555664824751293 -1.2164801097905804 2.124496363914236 19.93269979400539 0 0 0
4 1 -0.04161040067214482 0.043903121241154565 2.8149810799313038 19.955180400732694 0 0 0
5 1 -0.03403423103166735 4.903497628340235 4.2783429491387 19.90965452767828 -1 0 0
6 1 -0.04538499607332556 -1.2364200310976174 4.986816780058068 19.9721385200809 0 0 0
7 1 -0.0340342310316671 2.447095134114087 0.023729025299958666 19.909654527678303 0 0 0
8 1 -0.05341923827741344 3.7019157134097083 0.7240186848129225 20.122799977221725 0 0 0
9 1 -0.04447042529748901 1.134992055676904 2.041168060630113 19.90973209549964 0 0 0
10 1 -0.05319541280708383 0.0333737249492223 4.253701013189119 20.05508583081483 0 0 0
11 1 -0.04161040067214469 1.2846064342274952 4.963942255142712 19.95518040073269 0 0 0
12 1 -0.03555664824751101 1.2523921237071922 6.400708509728711 19.932699794005394 0 -1 0
13 1 -0.04030650896201655 6.1838924002767035 0.702697400332986 19.98842528583454 0 0 0
14 1 -0.0772789105885076 3.83713422246017 2.0575988660181834 20.288094712818786 0 0 0
15 1 -0.05341923827741081 4.9244392828422106 2.841491620520634 20.122799977221643 0 0 0
16 1 -0.04447042529749098 2.500292633939379 4.40593802978382 19.90973209549964 0 0 0
17 1 -0.04628883589868928 3.675914136518126 4.976759587547912 20.011517143591156 0 0 0
27 2 -0.01386819620459605 3.6962000869186573 2.1389672271111966 14.91831983711751 0 0 0
28 2 0.0113544446951733 1.854030010143998 1.0581711601739707 15.749336436530784 0 0 0
29 2 0.03235480735981808 1.7716936711950573 1.152682625123578 18.158614628507518 0 0 0
39 2 -0.01348011650004028 -1.8504837776137977 5.341346649408857 14.917564907192423 1 0 0
40 2 0.01135444469516561 3.7111118988094054 4.274731345158223 15.749336436530546 0 0 0
41 2 0.03235480735981874 3.588094399739632 4.298780973867751 18.158614628507493 0 0 0
51 2 -0.01406416589212077 0.004453450517288682 2.1335381586308424 14.912171563323243 1 0 0
52 2 0.01156741640881253 5.546769222332751 1.0705406386258063 15.71518799008242 0 0 0
53 2 0.04074964138488187 5.604084641991873 1.0374495656570024 18.07137470305159 0 0 0
63 2 -0.01406416589212197 1.8550284799408647 5.338828132810665 14.91217156332319 1 0 0
64 2 0.01079699195698139 -0.0002212934798662968 4.273097106122569 15.721773999212989 1 0 0
65 2 0.03685541392443195 -0.03273269197938616 4.291867570798003 18.095156235935335 1 0 0
66 3 0.2708782296699933 0.9516247577126287 1.6181402730057806 22.321097164695303 0 0 0
67 3 0.2684237517097509 -0.9237769917297625 4.80631223711878 22.370234321506796 0 0 0
68 3 0.2748213322223977 4.577927546662125 1.6299016408764302 22.3218071409625 0 0 0
69 3 0.2708782296699924 2.7749617955466226 4.776252661856394 22.321097164695313 0 0 0

Velocities

18 0 0 0
19 0 0 0
20 0 0 0
21 0 0 0
22 0 0 0
30 0 0 0
31 0 0 0
32 0 0 0
33 0 0 0
34 0 0 0
42 0 0 0
43 0 0 0
44 0 0 0
45 0 0 0
46 0 0 0
54 0 0 0
55 0 0 0
56 0 0 0
57 0 0 0
58 0 0 0
23 0 0 0
24 0 0 0
25 0 0 0
26 0 0 0
35 0 0 0
36 0 0 0
37 0 0 0
38 0 0 0
47 0 0 0
48 0 0 0
49 0 0 0
50 0 0 0
59 0 0 0
60 0 0 0
61 0 0 0
62 0 0 0
1 0 0 0
2 0 0 0
3 0 0 0
4 0 0 0
5 0 0 0
6 0 0 0
7 0 0 0
8 0 0 0
9 0 0 0
10 0 0 0
11 0 0 0
12 0 0 0
13 0 0 0
14 0 0 0
15 0 0 0
16 0 0 0
17 0 0 0
27 0 0 0
28 0 0 0
29 0 0 0
39 0 0 0
40 0 0 0
41 0 0 0
51 0 0 0
52 0 0 0
53 0 0 0
63 0 0 0
64 0 0 0
65 0 0 0
66 0 0 0
67 0 0 0
68 0 0 0
69 0 0 0
