LAMMPS data file via write_data, version 22 Jul 2025, timestep = 40000, units = real

70 atoms
3 atom types

0 7.401 xlo xhi
0 6.40945401340863 ylo yhi
0 40.32963854382093 zlo zhi
-3.7005 0 0 xy xz yz

Masses

1 12.01099999691024
2 28.08499999277529
3 6.939999998214724

Atoms # charge

19 2 -0.03000212799670377 0 0 0 0 0 0
20 2 -0.006748077670760668 3.7005 0 2.3516919839766413 0 0 0
21 2 -0.006260541128567258 3.7005 2.136484671136209 3.1355893119688565 0 0 0
22 2 -0.0117678673949241 3.7495994823247982 2.2438626555527392 5.60578559120851 0 0 0
23 2 -0.01307506654142033 1.7526201189628137 1.2468659870702892 6.436837631875909 0 0 0
31 2 -0.03001100468343583 1.8502499999999986 3.2047270067043145 0 0 0 0
32 2 -0.006739348852992038 5.550749999999999 3.2047270067043145 2.3516919839766413 0 0 0
33 2 -0.006258394905963601 -1.8502500000002147 5.341211677840524 3.1355893119688565 1 0 0
34 2 -0.01155530282870457 -1.8951211841730466 5.4885820253994435 5.500423993630844 1 0 0
35 2 -0.01303882253973361 3.653987163792578 4.39883954713837 6.344163398403657 0 0 0
43 2 -0.03000115294490078 3.7005 0 0 0 0 0
44 2 -0.006759830066510463 0 0 2.3516919839766413 1 0 0
45 2 -0.006266664785977477 -1.321936634231709e-13 2.136484671136209 3.1355893119688565 1 0 0
46 2 -0.01159911642641698 -0.08658075236356662 2.3016262753756846 5.515598669329919 1 0 0
47 2 -0.01326241198784823 5.558307382436174 1.1402889238893568 6.569755393843223 0 0 0
55 2 -0.0300051251960176 5.550749999999999 3.2047270067043145 0 0 0 0
56 2 -0.006720176413713975 1.8502499999999986 3.2047270067043145 2.3516919839766413 1 0 0
57 2 -0.006301494012814145 1.850250000000001 5.341211677840524 3.1355893119688565 1 0 0
58 2 -0.01151532364164045 1.8290065514273377 5.475790803385359 5.445482877026781 1 0 0
59 2 -0.01318956758118547 -0.015256467905157708 4.50699532346921 6.418170967592579 1 0 0
24 2 -0.01081709879725071 1.816103878607615 1.3391473444814324 8.840368782029076 0 0 0
25 2 -0.007405484040560691 -1.8507602031311752 3.4473325795644123 9.711009540254057 1 0 0
26 2 -0.007658214677327907 3.5005989118016236 0.12212456237766728 12.13540087335187 0 0 0
27 2 -0.01959204692684061 3.663415818102729 2.1854688896478165 13.214936280364418 0 0 0
36 2 -0.01110738275190232 3.7171821838819916 4.560451817826064 8.77295026264525 0 0 0
37 2 -0.007105060261304101 3.521446115785442 0.08512822118769331 9.738206199399006 1 1 0
38 2 -0.007211407550700734 5.372724810404067 3.4746909940977093 12.074126197627624 0 0 0
39 2 -0.02178255619749077 -1.840003463522075 5.475976863200284 13.398675288759318 1 0 0
48 2 -0.01004687366425403 5.441893570949544 1.3023870693145354 9.013063450200832 0 0 0
49 2 -0.007522160350765861 1.8580720541175557 3.477341890828803 9.545825871360117 1 0 0
50 2 -0.005875772115439887 0.042588168300748325 0.18793206727463965 12.007379417338209 1 0 0
51 2 -0.01382169791671767 -0.10109186540381078 2.2681422621864504 12.801223098485822 1 0 0
60 2 -0.01158992079126934 -0.0674746621966472 4.414043393635989 8.61402280304172 1 0 0
61 2 -0.006696994417486874 0.02338406910821522 0.26296036655447247 9.709315503990352 2 1 0
62 2 -0.00543444805999332 1.8004349495618526 3.393437218514735 11.96248765012976 1 0 0
63 2 -0.01452875425352314 1.8416293750940047 5.537285361214198 12.873566685029965 1 0 0
28 2 -0.02417752363519148 2.396421286799866 3.0762784742146323 15.13126021525239 0 0 0
29 2 0.0228442942990755 1.246680738531863 1.5980359429066042 17.002769379031175 0 0 0
30 2 0.02818816197254647 -1.1961342947204716 2.8806247629608057 17.204319928675275 0 0 0
40 2 -0.02234217873107683 -3.160357083775971 6.276188102018655 15.254418735529777 1 0 0
41 2 0.02259696779828949 3.2787583471543154 4.531224469086612 16.93561500174922 0 0 0
42 2 0.02600168902840948 0.513928873287328 6.041456287097517 17.102322318219027 0 0 0
52 2 -0.02427751895971645 0.1312969667736 2.174105514257922 15.178748258620818 1 0 0
53 2 -0.01970177868036705 4.953927182378696 1.4208676820097925 15.412838817308987 0 0 0
54 2 0.0278045189391924 3.832534541262354 2.2222360892142605 17.116209293285948 0 0 0
64 2 -0.02315386965030521 1.8837392785672078 5.523472597678996 15.231109826199196 1 0 0
65 2 -0.01991082805955137 -0.32915003207595794 4.554250655349826 15.413747182127654 1 0 0
66 2 0.03043341828424032 -1.7708163001597412 5.471877760832093 17.166526626026354 1 0 0
11 1 -0.02839814423485651 2.3923866868165127 6.398976871156148 20.42186266436839 4 2 0
12 1 -0.02536675466678637 -0.10623533134838499 0.7434421473427504 20.3744679093764 5 3 0
13 1 -0.02741124334179509 -0.1403027389781872 2.135956093271881 20.370519912713043 5 2 0
17 1 -0.02160938576595441 1.1213814931489783 0.03958082715478045 20.360364244630663 5 3 0
2 1 -0.02568318511880867 3.574778126510526 2.8750394131718076 20.393792442808476 4 2 0
3 1 -0.0329753420969028 1.1225892512764128 4.287523446538416 20.4629221415651 4 2 0
4 1 -0.03211795889879731 2.332598448070723 4.999126120118542 20.506538086542328 4 2 0
5 1 -0.02771483220915828 3.5665041665908115 0.015781550470873547 20.395281246084608 4 3 0
6 1 -0.02365125064932584 4.868050012988706 0.753716439303906 20.335470935494854 4 3 0
7 1 -0.02396068038304648 4.8152929894504535 2.1369943285547737 20.33869382042042 4 2 0
9 1 -0.03383855554969903 3.562882764124655 4.340698967961115 20.534624560077873 4 2 0
14 1 -0.02739266461827694 1.0476227957998796 2.793592880775026 20.385668116614482 5 2 0
18 1 -0.02874919197260753 2.3532437256744836 0.7511804160716558 20.42753933535747 5 3 0
1 1 -0.02529386667289978 2.362161549707181 2.2104428765368525 20.37670220681932 4 2 0
8 1 -0.01998090785089393 -1.3374223569340595 2.869608901558835 20.28760937120609 5 2 0
10 1 -0.02915077838502234 -2.571742737326798 5.013393449508299 20.48026196365306 5 2 0
15 1 -0.03563796078004286 -1.2914656089904335 4.322276673489333 20.491401061553766 5 2 0
16 1 -0.01928212649803094 -0.10740648913998421 4.9986699068890506 20.299785388493493 5 2 0
67 3 0.2231580480596939 0.6829673430240385 1.6001075851470092 23.63082472454551 -2 12 0
68 3 0.226314214575947 5.339045801173991 0.07653200693464415 23.62530219724578 -4 12 0
69 3 0.2291521160524254 -0.47993471832907125 4.264393351624446 23.521824830716973 -2 11 0
70 3 0.2245583887723531 3.194613378606176 3.382134815016194 23.749167303862524 -3 12 0

Velocities

19 0 0 0
20 0 0 0
21 0 0 0
22 0.002118232720221002 -0.0020685667737660616 0.0035356238903585684
23 0.0018873301060773175 -0.0010181627423025926 0.006464655278977298
31 0 0 0
32 0 0 0
33 0 0 0
34 0.0028889228323740438 -0.0060187294611790424 -0.0016440631627172321
35 -0.004373996118398527 0.004104911056517487 -0.009745960515023355
43 0 0 0
44 0 0 0
45 0 0 0
46 -0.0015627887864956027 -0.0011818508426161222 0.0032011028029880224
47 -0.0011006010007570493 -0.00262269169659034 0.006317944289451354
55 0 0 0
56 0 0 0
57 0 0 0
58 0.00017826780503622558 -0.0029444852054690577 -0.007012408827939274
59 0.0034785685803155894 -0.0023882557632753684 -0.0003643448916278732
24 0.008064078009953107 0.000922682112654006 -0.0027038400337558795
25 0.006209978749674986 0.00820412612022835 -0.005617995376427422
26 0.0015401266595568024 -0.00364968350023358 -0.0016343610034146529
27 0.0029266176468881987 -0.002636538263491372 -0.006054821842710285
36 -0.0021573753678125274 -0.0019405458338379912 0.002364972548707891
37 0.0002627046750992548 -0.0016909402354315065 6.911234724059717e-05
38 0.009461699566202552 -0.0006793231988011262 0.006980869746374856
39 0.0033785765139571033 -0.0015406878823868702 0.001006706886715603
48 0.0010869832728679168 -0.005859755662528309 0.002808142684103143
49 0.0034040297263898283 -0.0017248708277619376 0.004846603894954379
50 0.006888340497463344 0.0021168812528314543 -0.002943376382836164
51 0.0029868545302742405 -0.0001026418429144465 0.0004388895222721023
60 -0.002419118264077262 0.007049014656188679 -0.001907911533862251
61 0.005164527479938273 -0.001647794384769793 -0.0008583890907372063
62 0.0013167435890372612 -0.0027733001678126794 0.0016669729069518724
63 0.006203193466757621 -0.0037122727747488826 0.004266400295818439
28 -0.012669421900468538 -0.0080004264732889 0.0029824954128962215
29 0.005605458550739603 -0.010690560429828015 0.0013609104687487448
30 -0.0011846994887087562 0.004617339283971335 -0.0033381994796014814
40 0.00465127320478563 -0.006266707194179255 -0.0040082484089905765
41 -0.0024660676978736106 -0.006165369614337476 -0.0015914219683270015
42 0.005669476402994588 -0.0028705184858739893 -0.0052797336957377365
52 -0.005243161988724333 -0.006914226627233377 -0.0014571325374806248
53 -0.008297834921952208 -0.0023519161691109725 0.003366374229714937
54 0.008528867436308811 -0.00772925401144978 -0.00519795073309176
64 0.0014367455639697302 -0.0013779078031147963 0.0013960561483987838
65 0.004483521744615504 -0.011273217731149305 -0.0005980815563081513
66 0.00901031786547388 0.0005824171213337907 -0.002301970814260503
11 -0.006652061791588325 -0.0013502841731955007 0.010243679330277158
12 0.0017719133110445705 -0.005003515176719958 -0.004292957834778256
13 0.010007281736428574 0.008158638459024323 -0.006304056864435599
17 -0.0003449824575548842 0.004972957227725643 -0.005502990596561774
2 0.00486053349108411 -0.012254688859873407 0.0036030350419372363
3 -0.0041976311311428425 0.006990105686028841 -0.0009035747210170285
4 0.01101222864300511 -0.003528039256192878 0.008301578424325037
5 0.005606396222208786 0.0017753424083184562 -0.0036388053721018564
6 0.0010596394698288243 -0.000445615196290851 0.0019259170505195678
7 0.005786047634720723 -0.0036208698312973435 0.004760082216719066
9 0.005258480741147875 0.0011838316050458253 -0.005507631843165054
14 0.005067121087879021 0.0009332724402463387 0.0014968221354184881
18 -0.01395303676586472 0.0053285335867846485 -0.0012291711273605638
1 -0.0057496324977505285 0.0023931606299376195 0.009507282228577234
8 0.0022655972993473003 -0.00012695596205280344 -0.004266109680458993
10 0.003886459221337593 -0.0025777395241605885 -0.01490012480654784
15 0.01748087050547799 0.006137909706876226 0.00437080471419184
16 -0.005651180091444631 0.003550685220077694 0.0023362217044613333
67 0.009254014663066122 0.02026598426964502 0.0010377584374905797
68 -0.02131322008885042 -0.007099182893053046 -0.013000751675691305
69 0.0014668181846797582 0.011668924670606078 -0.001017229602759716
70 -0.010429006315979754 0.0014798441387436643 0.00022751822809572846
