LAMMPS data file via write_data, version 22 Jul 2025, timestep = 40000, units = real

69 atoms
3 atom types

0 7.401 xlo xhi
0 6.40945401340863 ylo yhi
0 40.32963854382093 zlo zhi
-3.7005 0 0 xy xz yz

Masses

1 12.01099999691024
2 28.08499999277529
3 6.939999998214724

Atoms # charge

18 2 -0.03096800751343915 0 0 0 0 0 0
19 2 -0.006790811019961921 3.7005 0 2.3516919839766413 0 0 0
20 2 -0.006275143742006204 3.7005 2.136484671136209 3.1355893119688565 0 0 0
21 2 -0.01234152737569825 3.543913661603705 2.0958123678725116 5.5970906021914 0 0 0
22 2 -0.0135912823239494 1.5675919957164062 1.0044794118239935 6.422838178881927 0 0 0
30 2 -0.0309986701143346 1.8502499999999986 3.2047270067043145 0 0 0 0
31 2 -0.006834419333917673 5.550749999999999 3.2047270067043145 2.3516919839766413 0 0 0
32 2 -0.00634384093083962 -1.8502500000003506 5.341211677840524 3.1355893119688565 1 0 0
33 2 -0.01213996747946882 -1.9018352172978523 5.355046844565218 5.44864216517217 1 0 0
34 2 -0.01354353397895408 3.69939952694623 4.314766064570985 6.31906784091188 0 0 0
42 2 -0.03097801501541523 3.7005 0 0 0 0 0
43 2 -0.006793575810143454 0 0 2.3516919839766413 1 0 0
44 2 -0.006318454299777496 -2.160046215967289e-13 2.136484671136209 3.1355893119688565 1 0 0
45 2 -0.0121986109949606 -0.2313294483812841 2.1596073338368273 5.4964296267326995 1 0 0
46 2 -0.01379981809866438 5.379069415174152 1.0080202610730746 6.635994899599802 0 0 0
54 2 -0.03098523588603845 5.550749999999999 3.2047270067043145 0 0 0 0
55 2 -0.006802253358266705 1.8502499999999986 3.2047270067043145 2.3516919839766413 1 0 0
56 2 -0.00626844775183505 1.850250000000001 5.341211677840524 3.1355893119688565 1 0 0
57 2 -0.01238719671878494 1.7719051260376197 5.314270395627556 5.552095497966497 1 0 0
58 2 -0.0134551306167821 -0.036186045886302164 4.3025037973607905 6.243181887312834 1 0 0
23 2 -0.01035353160407953 1.668567558299066 0.8031519869962723 8.780191002969397 0 0 0
24 2 -0.006702966582922893 5.387477351184876 3.051998780446543 9.766115343592299 0 0 0
25 2 -0.01011561037137085 -0.17763188310441927 6.147556639765309 12.18028321750032 0 -1 0
26 2 -0.01740860236646757 3.6811976615580773 1.924281031489635 12.827565082670095 0 0 0
35 2 -0.01052922183420991 3.537705553269864 4.215017624899809 8.7230991392929 0 0 0
36 2 -0.006738407695919948 -0.1031605687182789 6.271765694879663 9.847970797193037 1 0 0
37 2 -0.01068315578121509 5.5004263386637 3.0482758889610952 12.172608429139999 0 0 0
38 2 -0.01999457589585773 -1.894334396551756 4.986240658057053 13.122312286248208 1 0 0
47 2 -0.01057906595747892 5.2623413597681905 0.9801971236016942 8.85440284906543 0 0 0
48 2 -0.007733694110309147 1.7170919201352324 3.116615709949926 9.412169098195326 1 0 0
49 2 -0.01012039886394064 3.7427492103122955 6.170698376570401 12.212381724568804 0 -1 0
50 2 -0.02033187817404978 0.023277047365759505 1.9109283972101845 13.09344017889445 1 0 0
59 2 -0.01048605755058245 -0.09192053881884271 4.2046679502802835 8.70728454161474 1 0 0
60 2 -0.006779498515289329 3.5571531089970327 6.386305456517806 9.796022523766881 1 0 0
61 2 -0.006429363770514865 1.7497180547575177 2.902729422460776 11.719345922912728 1 0 0
62 2 -0.01572608047937444 1.708620379494534 4.859821242597718 12.7625821223581 1 0 0
27 2 -0.02328045510599423 3.4008018233552835 2.1511213019127657 15.343705325365246 0 0 0
28 2 0.01024639907392083 1.7366769790460237 0.8382893852321605 16.7115988976293 0 0 0
29 2 0.02999321012114881 3.7352696009752444 1.7363513753219142 17.855452820382514 0 0 0
39 2 -0.01788302396351225 -1.8860766282451673 5.084903950213283 15.636203313040896 1 0 0
40 2 0.009464005377335551 3.7344429437805102 4.025179445694326 16.66206004675569 0 0 0
41 2 0.01585891072367767 5.335289475873467 3.422277262421982 18.4324917759291 0 0 0
51 2 -0.02326481619448139 0.08505089992693822 1.8764514635521372 15.40623440217901 1 0 0
52 2 0.002681232717876552 5.373449307837557 0.9013985097046079 16.496530430246008 0 0 0
53 2 0.02293659389173864 -0.3743933223719971 1.926422433732087 17.789259252921276 1 0 0
63 2 -0.02666972348633803 1.7296856273540655 4.029290465540939 15.070184715390331 1 0 0
64 2 0.004976905133732388 -0.31661868812995553 3.889507871196744 16.66407753995051 1 0 0
65 2 0.02541811925463855 1.5310958185034516 5.060605908155761 17.360224963358153 1 0 0
9 1 -0.02280901285915124 3.9491066997273765 1.8127205849083379 20.16475886612314 0 0 0
14 1 -0.01673725711552348 -0.5439103539166503 1.8027628828552733 19.98860067479106 1 0 0
2 1 -0.0260520417345972 4.103978178457905 0.5158497213730122 20.310556846459534 0 0 0
4 1 -0.01675725964528876 2.917088170625635 2.6950606015461918 20.149438859323535 0 0 0
8 1 -0.02396749528523768 6.595930284908755 0.48660821133877014 20.23298684645564 0 0 0
16 1 -0.02939822160620005 -2.0967124757446043 4.289582738332135 20.301459754827576 1 0 0
15 1 -0.01835879328260419 0.4877375896075803 2.7139579705271877 20.108747189930767 1 0 0
5 1 -0.03307209571922725 0.3428540253920025 4.080708651800609 20.35644754467774 0 0 0
17 1 -0.02642267119905503 -0.8821669620312216 4.862143694248001 20.29326350344941 1 0 0
10 1 -0.02564059146366321 2.823137941870188 4.0838388448042275 20.34859684755043 0 0 0
7 1 -0.03443962478186383 1.5473881006043528 6.2134614633289384 20.430719176388198 0 -1 0
12 1 -0.03099849096131525 -3.239370430534687 6.175452742512479 20.41770131763069 1 -1 0
3 1 -0.0224398191334628 1.647374318066792 2.092165231453054 20.208262295940884 0 0 0
1 1 -0.02410996482448757 -0.8557503060620806 6.292608040839085 20.306177901384604 0 -1 0
11 1 -0.03100841334506073 4.104112485740448 4.841396801957534 20.436479798685898 0 0 0
6 1 -0.03339006391236026 1.58669572049752 4.789525195269781 20.45559708243911 0 0 0
13 1 -0.02234587084002386 1.6293428694111929 0.5263351238038784 20.273578935484785 1 0 0
66 3 0.2072681169963004 5.098887466342985 2.930832059873261 24.095874761027787 5 3 0
67 3 0.2118107918792553 0.8570407215910598 2.3068406393788443 23.826916860843305 3 6 0
68 3 0.2309779385776876 -0.30815847493881604 4.937357725674251 23.4185820349142 5 4 0
69 3 0.2179395346289585 6.404818566860441 0.20083864179622743 23.75253274182433 2 4 0

Velocities

18 0 0 0
19 0 0 0
20 0 0 0
21 0.0012319892937843124 0.0008993877607803255 0.0035721011121105373
22 0.007270716662753856 0.00415953344314674 0.005864844194342886
30 0 0 0
31 0 0 0
32 0 0 0
33 -0.004983314449909958 0.0034499558690200597 0.0040423872175758945
34 0.0029442853914392725 0.0006706475589975412 0.003554467399048838
42 0 0 0
43 0 0 0
44 0 0 0
45 0.004635033022104238 -0.0010344912838692987 0.003919861642550555
46 0.004822337019186203 0.0052493537958699585 0.007480620500774447
54 0 0 0
55 0 0 0
56 0 0 0
57 -0.0028590795516441293 0.0029101339194310604 -0.0016450674591561613
58 0.004598033222677021 0.006178973271714913 -0.0051030725126202485
23 -0.00671965828432099 -0.006043932297952915 0.005265103299357088
24 0.0002819745067443706 0.000544955340399375 0.002547057739411664
25 0.00557626700645788 -0.0017503256338237737 0.004021000966882841
26 0.003976969241287789 -0.0002769326735514743 0.0017875272635950229
35 -0.0013133349962194652 -0.006560382879122002 -0.006530050715519279
36 0.002253386109215352 -0.006492192687343292 0.008445110722616531
37 1.7666955720589247e-05 0.0015216141723734442 -0.006265854169614872
38 -0.004620778454735133 -0.001643392831232286 -0.00447575228485743
47 -0.004568311834239661 -0.004601412813315207 0.0037914851083607854
48 -0.0033584492665836335 -0.0007431190992655847 -0.0007572504949811482
49 -0.0043302073455355776 0.004245136995722805 0.009341165550268078
50 0.0010389170454501873 0.014510470206016783 -0.00038616051359536413
59 -0.0006229505953869567 -0.002950237518663229 -0.003333011352945994
60 -0.006361734759467062 -0.005950742813183096 -0.0006130252514515212
61 0.006786648642918253 0.002589866680946097 0.001151469707513151
62 0.005750027567136532 -0.003892587601239773 0.004258569987182359
27 0.006213847555697557 -0.0032943620475600595 0.003955259690848626
28 -0.0022106037063513713 0.007759675891785188 -0.004813643646358021
29 -0.003023564255054492 -0.007176004117726792 -0.0036321689115912325
39 0.0018356808716172713 -0.0019900712886894894 -0.0010792096212778866
40 0.0002163279015282393 -0.0023870986653823294 -0.0013322695621141676
41 0.003674467175227408 -0.0030216811378216382 -0.0022735866926404547
51 -0.004583212861080349 -0.0053277896248847545 -0.0046004325614278085
52 -0.007310796511536498 0.00040284385435253545 0.0035657007854242714
53 0.0013195832026512513 0.006249693930348859 0.001968188200421462
63 0.002553276770575055 0.007048637165473047 -0.00023989623338200566
64 0.000845287811239869 -0.0015657118776362356 0.0009232584201670901
65 0.0011869957767591324 -0.005272422614211529 -0.000496302889182481
9 0.013660476050415845 0.005908424408494934 -0.006287041136811515
14 0.006281722561828291 0.007204753398271819 -0.006445522079836391
2 -0.008249782355769054 0.0005007475957384637 0.009885383099685369
4 0.007868927830194288 0.0008203340660443705 -0.005246695430852572
8 0.0024507274700148927 -0.00030761991300703366 -0.007871286499952774
16 0.005670828328296234 0.004783383968299615 -0.0067589322343219755
15 0.00020962367611632195 0.0037153933274092815 0.004363378349919832
5 -0.00011052591032898413 0.0022979309053310208 0.006552790575668623
17 0.004677621636100967 -0.0007137110874651709 0.010816018824299181
10 -0.000657811611755981 -0.011531662598797567 -0.005383451777018753
7 -0.004908390565454964 -0.0041337420867652245 0.002912585543082371
12 -0.014997630924728068 0.0015757744379876232 -0.009984343178571331
3 0.009854092584256534 0.007724221231247755 0.009360199791161195
1 -0.013436436055267708 0.0060684488246792005 -0.004787406520145078
11 -0.006904249867929854 -0.003945305718332022 -0.007959407387222813
6 0.003038543805100809 0.007758674305838986 0.016040615524029633
13 -0.006658054805641079 -0.00625940508008707 0.0007931145368869967
66 0.003457294466570508 -0.012716510819076187 0.004517929915124502
67 0.004845166133126714 0.01191448274715001 -0.01562883624166746
68 -0.004018626395281423 -0.01210609535090313 0.0033464005365053625
69 -0.0021297700922600646 -0.01233526802523214 0.00524315964791454
