LAMMPS data file via write_data, version 22 Jul 2025, timestep = 500, units = real

75 atoms
3 atom types

0 7.401 xlo xhi
0 6.40945401340863 ylo yhi
0 40.32963854382093 zlo zhi
-3.7005 0 0 xy xz yz

Masses

1 12.01099999691024
2 28.08499999277529
3 6.939999998214724

Atoms # charge

19 2 -0.04508537029620244 0 0 0 0 0 0
20 2 -0.0100427400454561 3.7005 0 2.3516919839766413 0 0 0
21 2 -0.009572618062773996 3.7005 2.136484671136209 3.1355893119688565 0 0 0
22 2 -0.01688591746800916 3.695375230497312 2.1129062077394924 5.459971488011003 0 0 0
23 2 -0.01799281432995063 1.8282796001821557 1.0509120424676983 6.296641614875109 0 0 0
31 2 -0.0450843799266438 1.8502499999999986 3.2047270067043145 0 0 0 0
32 2 -0.01003906163498482 5.550749999999999 3.2047270067043145 2.3516919839766413 0 0 0
33 2 -0.009560990779327627 -1.8502500000000062 5.341211677840524 3.1355893119688565 1 0 0
34 2 -0.01692911092490813 -1.8527835866685398 5.327332556207406 5.46350540714314 1 0 0
35 2 -0.01797225770926796 3.688982525000972 4.251448815111873 6.260938961161813 0 0 0
43 2 -0.04509195064334175 3.7005 0 0 0 0 0
44 2 -0.01004743764585917 0 0 2.3516919839766413 1 0 0
45 2 -0.009556669017390319 -3.60135995099616e-15 2.136484671136209 3.1355893119688565 1 0 0
46 2 -0.0169486004681418 0.0014407977546053465 2.1115479693695947 5.468860835437045 1 0 0
47 2 -0.01799174673430848 5.55453549079747 1.0601350540493812 6.281531867616645 0 0 0
55 2 -0.04508834863695623 5.550749999999999 3.2047270067043145 0 0 0 0
56 2 -0.01003788038404905 1.8502499999999986 3.2047270067043145 2.3516919839766413 1 0 0
57 2 -0.009571483527388257 1.850250000000001 5.341211677840524 3.1355893119688565 1 0 0
58 2 -0.01690461571061835 1.8348728869103894 5.326310854097796 5.4493428837324025 1 0 0
59 2 -0.01801499978484487 -0.0034126170487474806 4.253161774384176 6.2933282136223525 1 0 0
24 2 -0.0153317935865219 1.8267770078093162 1.063414972186102 8.61801833958632 0 0 0
25 2 -0.01310615938140804 -1.8295530488643772 3.185168961020715 9.390908598215388 1 0 0
26 2 -0.01163104820026389 0.012771998353854426 6.380937120282077 11.762896246538629 0 -1 0
27 2 -0.01859446729855069 3.717314188037568 2.1345035111823605 12.42805204820006 0 0 0
36 2 -0.01539029727735844 3.722642546560063 4.267815880738429 8.593703887382816 0 0 0
37 2 -0.01296055081731202 -0.041273434334828454 6.38557482756658 9.427683283888674 1 0 0
38 2 -0.01184669095253118 -1.816680136166798 3.238098232249637 11.721064708799616 1 0 0
39 2 -0.01919866293015663 -1.870045853162897 5.357535938757918 12.611002653368471 1 0 0
48 2 -0.01539380778920996 5.521051121946095 1.0212092958298393 8.616612822495483 0 0 0
49 2 -0.01312802345395797 1.847762943085036 3.211865369043904 9.398942285139615 1 0 0
50 2 -0.01092572318978725 7.388359361359293 0.00735809390839818 11.76676439600743 0 0 0
51 2 -0.01894067124698684 0.0057327750057692695 2.155031480444349 12.580572899596968 1 0 0
60 2 -0.01557053661171727 0.007459452858099139 4.275520480791141 8.587423119697666 1 0 0
61 2 -0.01285175503129671 7.389194625710771 0.0005882576705730406 9.43830528689898 1 1 0
62 2 -0.01216234202564955 1.848011798325622 3.2130977859610064 11.738321679457306 1 0 0
63 2 -0.01901464385332598 1.8594990578259172 5.333118649492385 12.627782261232134 1 0 0
1 1 -0.01867150064866239 7.234605917751371 0.13266331038842505 20.038894318465434 -1 0 0
2 1 -0.01783607733026667 1.0259561455221082 0.8985777030885729 20.069126311832704 0 0 0
3 1 -0.05875344812769596 6.022694701004513 2.2555301662487137 20.54769450530952 -1 0 0
4 1 -0.03580632662410493 -0.19327744395556753 2.934831414172871 20.39960244868498 0 0 0
5 1 -0.02006496846507176 4.720204334057293 4.277211722313135 20.027654440122387 -1 0 0
6 1 -0.008922708501106685 -1.337282549998326 5.077425155680722 19.79244987538048 0 0 0
7 1 -0.0184379394556925 2.2904456859325415 0.1806145350267124 19.969382882853765 0 0 0
8 1 -0.04773120392483855 3.486157093418008 0.8252156674745581 20.38069282848657 0 0 0
9 1 -0.05898446975865144 1.0426353952849876 2.2324672126865823 20.641018420969342 0 0 0
10 1 -0.06833156230908652 2.272960605899165 2.9751219212852087 20.756275244308778 0 0 0
11 1 -0.03351568698620292 -0.15838483618504026 4.414890739826427 20.251353355137272 0 0 0
12 1 -0.04519400846707535 1.11638414342783 5.108329724962248 20.468065089875537 0 0 0
13 1 -0.04620451881736383 4.7812799319854955 0.0694761356892355 20.406668160731964 0 0 0
14 1 -0.0179223527264753 6.007113263376373 0.8735028217559517 20.122153427770485 0 0 0
15 1 -0.06687880008514537 3.5024600673713593 2.2258379905081562 20.662498318287483 0 0 0
16 1 -0.05726975976762152 4.8010800346802744 2.9063762464583927 20.503278297589027 0 0 0
17 1 -0.04243435276981637 2.303789364630838 4.346626318053658 20.4979393240777 0 0 0
18 1 -0.02702675658760958 3.492075012310091 5.045276747871191 20.17874315236167 0 0 0
28 2 -0.03140708082170862 3.716291149885158 2.104987981667355 14.670598572244856 0 0 0
29 2 -0.01378876777487115 1.8470508706971436 1.0557156074695249 15.733351578512655 0 0 0
30 2 0.0404130403961977 2.276837263635469 1.7307858793936535 17.951290784929654 0 0 0
40 2 -0.02987696563136925 -1.7648549610236777 5.311217991019357 15.002288861991499 1 0 0
41 2 -0.01286364367475597 3.7829199223603416 4.252912984792139 15.758829143275674 0 0 0
42 2 0.04123734185078519 3.681268578019955 3.516964808633257 18.01218037516213 0 0 0
52 2 -0.02739284171563176 0.03694654118440784 2.218726100181705 14.970107468334481 1 0 0
53 2 -0.01274428784496914 5.545956278460699 1.09641957151646 15.778910923754804 0 0 0
54 2 0.03937793411146043 4.871947727707607 1.5527508461241513 17.97504188226049 0 0 0
64 2 -0.02684433482915336 1.9036722913405164 5.311487762501215 15.021492479707616 1 0 0
65 2 -0.006794551431027407 0.04580518284108344 4.305427107174644 15.979821942505227 1 0 0
66 2 0.03316670930724827 -0.11557635525502703 3.8407598376259826 18.379847704695333 1 0 0
67 3 0.09428148481603184 1.9217156966873306 1.4000421030164028 25.23325189381051 0 0 0
68 3 0.1536086157556611 -0.6224364858186785 2.9662717208848237 26.692781093107932 0 0 0
69 3 0.1135474060306915 -1.5075147656873755 5.129780874323296 23.844148016349944 0 0 0
70 3 0.2146463302507985 3.5271100964061755 0.6529215273059525 22.653221793330527 0 0 0
71 3 0.1901032990908069 1.6437367482231509 3.4554609708719837 23.025247535437728 0 0 0
72 3 0.08999360271671243 1.079015835364828 5.242337673655558 25.060645025436003 0 0 0
73 3 0.1302079680434791 6.54536934346312 0.7539608200789973 23.735744891131002 0 0 0
74 3 0.2120660225770871 4.977654007430193 2.8802569465292676 22.697271480303264 0 0 0
75 3 0.1335153275054704 3.9927694280673087 4.118904075135814 26.31393750738851 0 0 0

Velocities

19 0 0 0
20 0 0 0
21 0 0 0
22 -0.0013080468944242213 -0.0005437333073209585 -0.0007308126247086577
23 -0.0012153123474328998 0.0008754865007293046 0.001316354530029583
31 0 0 0
32 0 0 0
33 0 0 0
34 -0.00037617513657592285 -0.0014860930285380029 -0.0005559985018554751
35 0.0015803645204729648 0.0024773522074005012 0.001895137324928913
43 0 0 0
44 0 0 0
45 0 0 0
46 -0.0017645601898852352 0.0005861480964440156 0.0005129117900188317
47 0.0002009405340875047 -0.0006208822749470363 0.0014678593295138964
55 0 0 0
56 0 0 0
57 0 0 0
58 0.00030933718562807066 -0.00159118630726494 0.0019429105115599864
59 -0.0023226113412655176 -8.792817772697608e-05 -0.0003268845697569818
24 0.0008835025083850597 -0.001065109897647826 -0.001318316581054049
25 -0.0008927922163084361 0.0009500143779265431 -0.0007238377755745119
26 -0.0008376463519822434 -0.0005509624184827475 0.0005316072641458438
27 -0.0015563542743480144 -0.0013877267717423403 -0.003981721012294984
36 -0.0011071698620595024 0.0010934631665364435 0.0005514536054312994
37 0.0016401564338448449 0.0015855503629910884 -0.0002525922603030103
38 0.0018593009395578039 -0.00041662086831714554 0.0008839161137914726
39 0.0016021913458820823 0.0006212269995415026 0.0029854299630748715
48 0.0026301157241826784 0.001957801766925694 -0.003453553720264392
49 -0.0006872624193960072 -0.0010782285684830077 -0.0012401162797300233
50 0.0031645275826233405 0.0010731748915737578 0.0037970030659615827
51 0.002089416143927376 -0.0011515777555269706 0.002336271817227189
60 0.0014974564896249342 -0.0009170438309222877 -0.0006878856222735724
61 -0.0002379184242118212 0.0005659449786286951 1.21617472640738e-05
62 -0.00020992176333680152 9.276659794952658e-05 0.0008073216561387278
63 -0.00034749957468106 0.0006681249322938856 0.0033251165953680478
1 0.003563464602960824 0.0015435295167761439 0.011598410052084628
2 -0.005071229916188552 -0.0035182588056672454 0.007734393289221547
3 -0.011002187079080109 0.0010064545368695934 0.00994267067455346
4 -0.0014508087018684159 -0.0012289775641433432 0.009830191178656862
5 -0.00024885883674701046 0.007135443808262457 0.010308932067968617
6 0.0014293669749601643 -0.0005718778027362194 0.002908467315383664
7 -0.0013022750618037241 0.001901690445338736 0.005768633957778052
8 -0.0071114155474215944 -0.0031433406742637435 -0.004949733870879995
9 0.002219609021850524 0.005200218006385902 -0.01763055011238024
10 -0.006550873001940795 -0.004648480871586719 -0.005772699883794435
11 0.0010145150468847926 0.005553919480342579 0.011820561997543095
12 -0.006526116391407276 0.0001231338282329975 0.013983829729352332
13 -0.0038748377385547698 -0.0006000137640659541 0.01714506586900537
14 -0.0023883941018113483 0.008463724008676534 0.010314856800758075
15 -0.004921321163798336 -0.0006566587581440029 -0.004112509827395502
16 0.009034854385644256 0.0076234727491377155 -0.0016458142581705967
17 0.0033587333470285075 0.003610249342226464 0.002500790437544106
18 0.009987214866951841 0.004848136327451959 0.0020614979486141293
28 -0.002714418244811041 -0.002002196274651849 -0.0007829111344941021
29 0.0005267606248568157 0.0035317835814550605 -0.00012966389920154514
30 0.003070723925576089 -0.0025547699779988444 0.0028049871301192757
40 0.0011441400543856536 -0.0012148706746735933 0.004507138898165589
41 -0.003024954127057518 -0.00710971256830033 -0.0018984270119267706
42 0.008236582785518951 0.010926299599491112 -0.0004305481977288638
52 -0.0008754541059834781 5.97095513794858e-05 0.005091592865569676
53 -0.004530046590974092 0.0027704709502121344 -0.0007606020305474326
54 0.003205089319957443 -0.0048921744254945216 -0.0065378595983161415
64 -0.0012756631329275 0.0015509217377509066 0.0053560685847464495
65 -0.0009424334154745978 2.1841107754241486e-05 0.007592149454568183
66 -0.006190764290486516 -0.013822594329033157 0.009746632470987386
67 0.012626991165522364 0.004539706172091688 0.014307815577729054
68 -0.005228252980079706 -0.0011044537126265522 0.025407474059480087
69 -0.004278062222898319 0.0016771542060368479 0.003773212541688128
70 0.00029268318554789635 0.006308295987466718 0.006471331997550453
71 -0.0023975645921285593 0.002477487585876452 0.00483667200333958
72 0.0016029496516805088 0.002889551988818713 0.01950247121977517
73 0.017021566325387188 -0.0030193544991257903 -0.004321602787514651
74 -0.00379204241834782 -0.009687405229493544 -0.0018687736091742052
75 0.0043259584384488 -0.011103108051991798 0.017183932468349823
