LAMMPS data file via write_data, version 22 Jul 2025, timestep = 80000, units = real

75 atoms
3 atom types

0 7.401 xlo xhi
0 6.40945401340863 ylo yhi
0 40.32963854382093 zlo zhi
-3.7005 0 0 xy xz yz

Masses

1 12.01099999691024
2 28.08499999277529
3 6.939999998214724

Atoms # charge

19 2 -0.064237548242284 0 0 0 0 0 0
20 2 -0.01442541391950005 3.7005 0 2.3516919839766413 0 0 0
21 2 -0.01388449139280543 3.7005 2.136484671136209 3.1355893119688565 0 0 0
22 2 -0.02382975893824177 3.699726616769967 2.13650860902974 5.454201317559611 0 0 0
23 2 -0.02499149484302305 1.8498483002666177 1.0685297158152955 6.2781877050885235 0 0 0
31 2 -0.06423960220228488 1.8502499999999986 3.2047270067043145 0 0 0 0
32 2 -0.01442289387790316 5.550749999999999 3.2047270067043145 2.3516919839766413 0 0 0
33 2 -0.0138835354403878 -1.8502500000000242 5.341211677840524 3.1355893119688565 1 0 0
34 2 -0.02384837309680307 -1.853061433320854 5.344302101793483 5.4497237817993565 1 0 0
35 2 -0.0249916692930462 3.70045550516772 4.27400719880327 6.2732924101631395 0 0 0
43 2 -0.06423963720566224 3.7005 0 0 0 0 0
44 2 -0.01443372284309978 0 0 2.3516919839766413 1 0 0
45 2 -0.01388378702649779 -1.4693986768084717e-14 2.136484671136209 3.1355893119688565 1 0 0
46 2 -0.0238483722474219 0.0008210637545555278 2.133194073674599 5.449747725246191 1 0 0
47 2 -0.02499117498351842 5.551138545440943 1.0683962433243928 6.27326114497575 0 0 0
55 2 -0.06424000207013489 5.550749999999999 3.2047270067043145 0 0 0 0
56 2 -0.01442586375461218 1.8502499999999986 3.2047270067043145 2.3516919839766413 1 0 0
57 2 -0.01388653851212267 1.850250000000001 5.341211677840524 3.1355893119688565 1 0 0
58 2 -0.02386470207705422 1.8532052656656608 5.343341178930103 5.448394614084761 1 0 0
59 2 -0.02500824965463375 0.00015109483332385908 4.2735698553209955 6.256884283685079 1 0 0
24 2 -0.02196672641836538 1.844938886684264 1.0659912235787772 8.588376272200872 0 0 0
25 2 -0.02003005198319041 -1.8458325098971544 3.208062073838617 9.37096517975987 1 0 0
26 2 -0.01757021860905394 0.007652485980372549 6.390796001518035 11.69723529824969 0 -1 0
27 2 -0.0231644187202724 3.6979002802306202 2.1358720967064757 12.428231599520178 0 0 0
36 2 -0.02193868436184607 3.698933609084439 4.280086798065542 8.583157657523163 0 0 0
37 2 -0.0199045352253337 0.0010824050129281306 6.403924607306184 9.379277014576198 1 0 0
38 2 -0.01820403741384095 -1.836519440989476 3.2134029800749353 11.685454277722483 1 0 0
39 2 -0.02304907139202634 -1.8445103703091184 5.344999820256188 12.527079936523837 1 0 0
48 2 -0.02194926888447431 5.555412819610505 1.0645106638788011 8.583132570529283 0 0 0
49 2 -0.0198962918424839 1.8452509951614964 3.2096698189154553 9.37921983612581 1 0 0
50 2 -0.01728865688267886 3.6924731029725057 6.406003642493961 11.73267848766918 0 -1 0
51 2 -0.02307060127639556 0.005535556626053737 2.1410142459550228 12.527733596104147 1 0 0
60 2 -0.02214895974726229 0.0010321877516775227 4.274387631519098 8.563581092991495 1 0 0
61 2 -0.01970930195740375 3.698741058431387 6.40933391073121 9.416386467190108 1 0 0
62 2 -0.01755063418787265 1.8368393180751188 3.2220826756869605 11.697369918356271 1 0 0
63 2 -0.02324756822681386 1.8424884181955814 5.337562501378242 12.589454225422745 1 0 0
28 2 -0.03553593242917102 3.7486435326437997 2.1649139590938704 14.667440315547132 0 0 0
29 2 -0.02321966272105982 1.952882698178895 1.1279719102606292 15.620633293232622 0 0 0
30 2 0.02312290818968731 2.696599602091456 1.546094668279658 17.780489976470378 0 0 0
40 2 -0.0342971499515578 -1.8415194704752615 5.383557145584235 14.845295187099202 1 0 0
41 2 -0.02550552184273269 3.6805233890568863 4.271425335758524 15.519275382325572 0 0 0
42 2 0.02260629621694761 3.8657365096961818 3.67453810277472 17.660456420066666 0 0 0
52 2 -0.0342440937218214 0.041358214987440356 2.1262394714880433 14.84570014748753 1 0 0
53 2 -0.02503421915346062 5.541413156562866 1.057032656151258 15.522806407865462 0 0 0
54 2 0.02325604336433006 5.119977908771684 1.523295463522084 17.660847983610804 0 0 0
64 2 -0.03383574934022394 1.7772640541418119 5.302818310564977 14.940510828932053 1 0 0
65 2 -0.01968729745450881 -0.10314094384549413 4.215014975271678 15.78571557958806 1 0 0
66 2 0.02311425092366753 -1.1247734694919957 3.632063795284539 17.81696785853316 1 0 0
1 1 -0.0286257582479985 0.3706386838190522 0.2543748004233757 20.249106359449865 0 0 0
2 1 -0.03122696251745499 1.5947805873018437 0.9581282821449186 20.30761692595735 0 0 0
5 1 -0.03325425541654025 -2.114426245624278 4.499355485321918 20.346363346606232 0 0 0
6 1 -0.03216490751913154 -0.8905677905841027 5.2301232053028395 20.330210445489545 0 0 0
7 1 -0.03282622155146973 2.7970438668196405 0.2456910092195136 20.34562641323317 0 0 0
14 1 -0.03033324022528177 6.510716036790501 0.9723167596526134 20.286557034651484 0 0 0
3 1 -0.03334752310546379 -0.8940736720459928 2.387877028733157 20.3593738237636 0 0 0
4 1 -0.03202210747935336 0.34410700150717893 3.0843607243746822 20.339593424134552 0 0 0
8 1 -0.03494081335528855 4.045961004313774 0.9348311669744469 20.39009042366418 0 0 0
9 1 -0.03265872119024132 1.5783624191332652 2.362053989250663 20.342125229878118 0 0 0
10 1 -0.03423746911325242 2.8049618277317907 3.0971469658452397 20.363801752909115 0 0 0
11 1 -0.02972717279024932 0.35544888126931085 4.516887649991337 20.299717467204317 0 0 0
12 1 -0.02662193645685739 1.5892129147863403 5.23024413192251 20.241065938824608 0 0 0
13 1 -0.02923800348158062 5.289072341338133 0.23987995695507938 20.28847788501793 0 0 0
15 1 -0.03805151170994257 4.0672826863571325 2.3897246791418287 20.436747209227377 0 0 0
16 1 -0.03551793052725908 5.302934952656486 3.0990649629804143 20.406273338752662 0 0 0
17 1 -0.02885572485977821 2.8187539482046424 4.516708214584315 20.258299781420597 0 0 0
18 1 -0.03007989256168634 4.0622315754693625 5.213227956247447 20.26654112603295 0 0 0
69 3 0.158384087872627 -2.8860876453451545 6.250435583653978 25.785461044963274 0 0 0
70 3 0.1904526659544835 2.1817747152103535 1.485505875368785 23.4688281641149 0 0 0
71 3 0.1858635595352973 -0.7415601500698373 4.677290547060413 23.563642074776805 0 0 0
73 3 0.1855686297725436 6.041034988235953 1.5475800462806375 23.57137986147762 0 0 0
74 3 0.1941494948688502 3.0648940165175316 4.789348978184594 23.39306223304358 0 0 0
67 3 0.1858479628777474 0.47406301729477546 5.401491415992528 31.773877254934924 0 -1 0
72 3 0.1619180775678822 2.5141617485997148 3.92136207156242 33.544683110075795 0 0 0
75 3 0.1618438631029337 -1.5721795058510015 3.9209536416657618 33.538243196684455 1 0 0
68 3 0.1852277972267197 0.4681748467275622 5.7010945775568675 34.99990190650677 0 0 0

Velocities

19 0 0 0
20 0 0 0
21 0 0 0
22 1.5268632924007558e-06 9.030421300063955e-07 1.478713655324811e-06
23 -1.2624991196888765e-06 4.04665005108836e-07 -1.2060117599555394e-05
31 0 0 0
32 0 0 0
33 0 0 0
34 -1.2573167644331981e-06 1.3052508307890321e-06 -6.04574519295737e-06
35 1.3245316023014528e-07 9.242253182447886e-07 -8.070713001713911e-06
43 0 0 0
44 0 0 0
45 0 0 0
46 3.967758915545856e-07 -8.430534073099499e-07 -5.520589926942184e-06
47 2.464641924772828e-06 5.930246595455521e-07 -4.413353678124779e-06
55 0 0 0
56 0 0 0
57 0 0 0
58 2.4780971551921816e-06 2.3012162864082937e-06 -6.362816493275391e-06
59 1.2076413485395676e-06 1.0148585503530826e-08 -1.726971809864083e-05
24 -2.1411628450756957e-06 -5.284041082169034e-06 -7.812370546640569e-06
25 -4.663058637578333e-06 5.949247661902371e-07 6.994608055551886e-07
26 2.474084393061586e-05 8.923982972111543e-06 -9.374275367561566e-06
27 4.230192136883032e-06 2.692283844581922e-06 4.77370005194934e-05
36 -1.944095141222781e-06 1.8451499024392472e-06 -4.077620754121923e-06
37 1.2971564187066418e-06 2.0915849332359854e-06 -5.53440834632709e-06
38 -3.909200298548502e-06 -1.3059081744860496e-05 -5.651919693860037e-06
39 1.3941992060254618e-05 8.79284131596701e-06 -1.5075481593184823e-05
48 4.726065745635314e-06 -1.3757123819916055e-06 2.264606012364569e-06
49 -3.032673368765703e-06 -2.4691789296342114e-06 -6.9861462620956065e-06
50 5.731461908319583e-06 1.491153967569871e-07 6.6849630423995115e-06
51 -1.1125463628018194e-06 7.372133277630433e-06 2.425616131716426e-06
60 -4.199715670109592e-06 -1.9484839878660722e-06 -1.6449926170880885e-05
61 -2.0417061411864294e-06 8.762048151042588e-07 9.881784758171392e-06
62 4.15445952451949e-06 4.145967981238875e-07 -1.633952827183675e-05
63 1.0001284415235678e-05 -5.1344024762529905e-06 -6.183859335078191e-06
28 -0.00018664120790888597 -2.584648775242294e-05 3.0616350775118295e-05
29 -4.9735146779819396e-05 1.1048736026760627e-05 8.839092689994525e-05
30 6.14481533719725e-05 8.018745691204034e-05 -0.00020811054666997072
40 1.2444850347117222e-05 1.3370202447938474e-06 -1.2910544750529844e-06
41 1.2975986608278553e-05 -2.878495929887215e-05 -1.962130254513289e-05
42 2.9303710420191583e-06 1.4219339223061793e-05 1.280009244683972e-05
52 -4.2363344674777646e-05 -8.493189621960974e-06 -3.9922546205912925e-06
53 -2.5887854622265786e-05 -3.2123181688672195e-05 -7.783693769660526e-05
54 9.368635489653829e-05 5.055400291960382e-05 0.0001332457132725116
64 2.9753218214679627e-05 -2.2108499808472532e-05 -2.0467214751652454e-05
65 1.7372328202046597e-05 -2.7616753421367334e-06 2.6611897101650632e-05
66 4.96258083789605e-07 -2.766591717969631e-05 0.00011558179382926108
1 0.0001931113789388409 0.00016091255312883926 0.03193336522456547
2 -0.0002673275830177149 -0.0004301430261239394 0.031914524176958656
5 -0.0002121737108198919 3.662306406187479e-05 0.032073495804400054
6 -0.00011088667860898042 7.732593673973265e-05 0.031977219865080404
7 -9.327738666737137e-05 0.0002518776331767785 0.03211024331980925
14 -1.7919442313542142e-05 -0.0002237279222513935 0.032014907500213255
3 7.307562975042162e-05 -0.0001314817346987683 0.03196861442283046
4 -9.351044232862981e-05 0.00012084496642927364 0.032101566744296234
8 0.00022210039624952083 -3.91611389013485e-05 0.03201961078080283
9 -6.138892459314218e-06 -0.00020802503284857784 0.032014903535646684
10 0.0003143396307564935 0.00032557876713630086 0.03205912201372678
11 0.00015408436116429427 -7.32933405207307e-05 0.03191307433375684
12 0.00030358868241439 9.57737084552079e-05 0.03205182704692377
13 -0.0001191892054033352 -4.417618642075211e-05 0.03212960068421898
15 0.00012715741257185076 -0.00014946540630833772 0.031900545040130214
16 -0.00017852827658266287 6.451840637138551e-05 0.03196450669961328
17 -9.10140821667269e-05 4.101488262783704e-05 0.03209874843282894
18 -0.00011609909305632667 5.7486206271743364e-05 0.03213537152973246
69 6.253989892208715e-06 1.0681628353391818e-05 5.573139746758367e-06
70 -1.2693934037461698e-05 -1.3386648085222756e-05 -1.185974253031917e-06
71 -3.473082877795018e-06 6.941512299533192e-06 -2.0180096806502444e-05
73 4.293373076338559e-06 -9.851369024318228e-07 1.7846296892460267e-05
74 -9.776979195112612e-06 1.2782211883118471e-06 -1.9216378012230667e-06
67 2.0440423328975577e-05 -4.4172261090355766e-05 -6.340837146653271e-07
72 2.06019243007093e-05 -4.513918186904804e-05 -8.120448887256928e-07
75 2.0312242190018696e-05 -4.516971607379473e-05 -8.627695274423074e-07
68 2.0445025716339944e-05 -4.531152378689385e-05 4.914610703916668e-05
