LAMMPS data file via write_data, version 22 Jul 2025, timestep = 3, units = real

74 atoms
3 atom types

0 7.401 xlo xhi
0 6.40945401340863 ylo yhi
0 40.32963854382093 zlo zhi
-3.7005 0 0 xy xz yz

Masses

1 12.01099999691024
2 28.08499999277529
3 6.939999998214724

Atoms # charge

18 2 -0.03784277581273877 0 0 0 0 0 0
19 2 -0.007536689775992807 3.7005 0 2.3516919839766413 0 0 0
20 2 -0.00666933937923892 3.7005 2.136484671136209 3.1355893119688565 0 0 0
21 2 -0.01552832148693962 3.7005003081929835 2.1364844932009084 5.470377029251527 0 0 0
22 2 -0.01757172665904994 1.850251309101367 1.0682429845865455 6.287969248476875 0 0 0
30 2 -0.03784286023209681 1.8502499999999988 3.2047270067043145 0 0 0 0
31 2 -0.00753668977599274 5.550749999999999 3.2047270067043145 2.3516919839766413 0 0 0
32 2 -0.006669182465250177 -1.8502500000000008 5.341211677840524 3.1355893119688565 1 0 0
33 2 -0.01554115347554954 -1.8502486288336564 5.341210886197264 5.4703799296505915 1 0 0
34 2 -0.01757172665904961 3.700500092484231 4.272967884048154 6.287969248476888 0 0 0
42 2 -0.03784276759868174 3.7005 0 0 0 0 0
43 2 -0.007537133173777082 0 0 2.3516919839766413 1 0 0
44 2 -0.006669173714963585 -3.1465570889584643e-16 2.136484671136209 3.1355893119688565 1 0 0
45 2 -0.01553465588634304 -3.0819339447129187e-07 2.1364860764863063 5.470380432785607 1 0 0
46 2 -0.01756895218379299 5.550748690802104 1.0682430914338688 6.287970683763108 0 0 0
54 2 -0.0378427675986816 5.550749999999999 3.2047270067043145 0 0 0 0
55 2 -0.007537672563091805 1.8502499999999988 3.2047270067043145 2.3516919839766413 1 0 0
56 2 -0.006669173714964096 1.850250000000001 5.341211677840524 3.1355893119688565 1 0 0
57 2 -0.01553465588634284 1.8502486288344178 5.341211242068784 5.470380432785609 1 0 0
58 2 -0.01757552808260206 -9.265764419373138e-08 4.272969395768329 6.287980703420238 1 0 0
23 2 -0.01004935600004135 1.850259398402223 1.068246099010027 8.607631021618806 0 0 0
24 2 -0.004630272351606759 5.550743633394063 3.204732353798164 9.421773948414105 0 0 0
25 2 -0.01310142049262774 3.700326385647922 0.00040849364369143805 11.738790617336837 0 0 0
26 2 -0.02891935882444079 3.700516689015785 2.136475035728463 12.557768443769756 0 0 0
35 2 -0.01004935600004139 3.7005014399648233 4.272959321296363 8.607631021618815 0 0 0
36 2 -0.004630272351606673 3.700492185977919 2.840095546187995e-06 9.421773948414105 1 1 0
37 2 -0.01310142049262672 5.550309426951237 3.2046731143218286 11.738790617336807 0 0 0
38 2 -0.02833814146228989 -1.8501782006674725 5.341170224476551 12.55658442869731 1 0 0
47 2 -0.01007167610131507 5.550740599977146 1.0682477626738547 8.607628684103453 0 0 0
48 2 -0.004591963269590111 1.8502563674821244 3.2047233304367957 9.42176500241132 1 0 0
49 2 -0.01299542018200652 -3.7003299598482706 6.409355840681255 11.73796046685474 1 -1 0
50 2 -0.0286355986299849 -1.7591722553134117e-05 2.1365210269080586 12.5557596565783 1 0 0
59 2 -0.01007695050277209 -1.4397323151163302e-06 4.272970173502229 8.607632182248553 1 0 0
60 2 -0.004623282574489873 -3.7004921787047405 6.409449497781705 9.42174103386959 2 0 0
61 2 -0.01318129703538595 1.8506910514571067 3.204472365526827 11.738473256398144 1 0 0
62 2 -0.02863559862998465 1.8502097191167353 5.341208734833221 12.55575965657831 1 0 0
1 1 -0.06669800332364222 7.397259584894596 0.0021595296679869243 20.068784778857335 -1 0 0
2 1 -0.06037233219058682 1.2078256180470528 0.7542046423909553 20.00384896510949 0 0 0
3 1 -0.05788869309452262 -1.2131771924199402 2.126604443166213 19.98773403456821 0 0 0
4 1 -0.06084103029445507 0.07706036819024488 2.807300404029206 19.9932893379069 0 0 0
5 1 -0.05923889959552832 4.887630649090844 4.27517725457669 19.98448200864818 -1 0 0
6 1 -0.06090426554979277 -1.231189107641264 4.983796704992438 19.99124380679043 0 0 0
7 1 -0.05923889959552815 2.4419032164005925 0.03905307969219073 19.984482008648172 0 0 0
8 1 -0.06502025093265446 3.685151254109428 0.7786212486301808 20.04834074546758 0 0 0
9 1 -0.06287014887386609 1.1199145502337793 2.0431924795359495 19.962962313839633 0 0 0
10 1 -0.06543741687442899 0.044271892765635826 4.247408953066647 20.015125284517257 0 0 0
11 1 -0.06084103029445478 1.3078367181515087 4.939067574916293 19.9932893379069 0 0 0
12 1 -0.05788869309452304 1.2522179322072304 6.396794059753071 19.98773403456821 0 -1 0
13 1 -0.05794884854470565 6.196343173998396 0.6955089427731486 20.00133343592786 0 0 0
14 1 -0.08185864045759048 3.798902263520006 2.0796720978040635 20.129035542461548 0 0 0
15 1 -0.06502025093265408 4.86876984581462 2.8287087862466924 20.04834074546758 0 0 0
16 1 -0.0628701488738669 2.4910006830174356 4.417983323070376 19.962962313839636 0 0 0
17 1 -0.06037233219058652 3.6512524290608037 4.986344023642763 20.00384896510949 0 0 0
27 2 -0.02081330493224443 3.7002460567960065 2.1366312853133915 14.89652731013312 0 0 0
28 2 0.01181874871047657 1.8510098221985012 1.067021813359014 15.698538926657248 0 0 0
29 2 0.05368374068283679 1.8147009001024705 1.0976311328417014 18.109615617456395 0 0 0
39 2 -0.01990697832046886 -1.8493374603033579 5.340684822801019 14.899767630116303 1 0 0
40 2 0.01181874871047628 3.7019369143382037 4.272921578050698 15.698538926657248 0 0 0
41 2 0.05368374068283745 3.6572740050256254 4.2890613672285545 18.109615617456377 0 0 0
51 2 -0.02017190884991353 0.0002911436182317044 2.1375013176441944 14.899301287903183 1 0 0
52 2 0.01310128787647031 5.5495107964484145 1.0689577900721896 15.693268419917729 0 0 0
53 2 0.06244626187382186 5.581805327255347 1.050312534017458 18.04734046402032 0 0 0
63 2 -0.02017190884991426 1.849515130106528 5.340451216816991 14.899301287903183 1 0 0
64 2 0.01277672086152918 -0.00011383567078286386 4.273035065327587 15.70565090388958 1 0 0
65 2 0.05790242906129072 -0.02192283114493433 4.285626494735342 18.06924942369926 1 0 0
66 3 0.1608361622902623 0.6221227387686341 1.069076177898918 22.336248511845806 0 0 0
67 3 0.1585435291057057 -0.6137513545180373 3.2036340358788338 22.359237198322784 0 0 0
68 3 0.1586232765385059 -1.8481099973058353 5.339976146708981 22.36134489143599 0 0 0
69 3 0.1605166633606532 3.0895649624449493 1.0759781047609427 22.336533470612054 0 0 0
70 3 0.1571476642274587 1.854721303958581 3.202145498160199 22.33388472709889 0 0 0
71 3 0.1585435291057057 0.619195863241442 5.339161260088942 22.359237198322784 0 0 0
72 3 0.1598329879529327 5.553916759430086 1.066414006158687 22.35778000286743 0 0 0
73 3 0.1605166633606528 4.3134581085836645 3.1958232169085186 22.336533470612054 0 0 0
74 3 0.1608361622902628 3.0857142407430804 5.336141828413584 22.336248511845806 0 0 0

Velocities

18 0 0 0
19 0 0 0
20 0 0 0
21 0 0 0
22 0 0 0
30 0 0 0
31 0 0 0
32 0 0 0
33 0 0 0
34 0 0 0
42 0 0 0
43 0 0 0
44 0 0 0
45 0 0 0
46 0 0 0
54 0 0 0
55 0 0 0
56 0 0 0
57 0 0 0
58 0 0 0
23 0 0 0
24 0 0 0
25 0 0 0
26 0 0 0
35 0 0 0
36 0 0 0
37 0 0 0
38 0 0 0
47 0 0 0
48 0 0 0
49 0 0 0
50 0 0 0
59 0 0 0
60 0 0 0
61 0 0 0
62 0 0 0
1 0 0 0
2 0 0 0
3 0 0 0
4 0 0 0
5 0 0 0
6 0 0 0
7 0 0 0
8 0 0 0
9 0 0 0
10 0 0 0
11 0 0 0
12 0 0 0
13 0 0 0
14 0 0 0
15 0 0 0
16 0 0 0
17 0 0 0
27 0 0 0
28 0 0 0
29 0 0 0
39 0 0 0
40 0 0 0
41 0 0 0
51 0 0 0
52 0 0 0
53 0 0 0
63 0 0 0
64 0 0 0
65 0 0 0
66 0 0 0
67 0 0 0
68 0 0 0
69 0 0 0
70 0 0 0
71 0 0 0
72 0 0 0
73 0 0 0
74 0 0 0
