LAMMPS data file via write_data, version 22 Jul 2025, timestep = 80000, units = real

74 atoms
3 atom types

0 7.401 xlo xhi
0 6.40945401340863 ylo yhi
0 40.32963854382093 zlo zhi
-3.7005 0 0 xy xz yz

Masses

1 12.01099999691024
2 28.08499999277529
3 6.939999998214724

Atoms # charge

18 2 -0.06487055659939442 0 0 0 0 0 0
19 2 -0.01445407597674336 3.7005 0 2.3516919839766413 0 0 0
20 2 -0.01390132134889062 3.7005 2.136484671136209 3.1355893119688565 0 0 0
21 2 -0.02526677476006106 3.699976202755627 2.138108147419778 5.50082586829698 0 0 0
22 2 -0.0264744330968179 1.848652709290288 1.0682139290527768 6.359911005074855 0 0 0
30 2 -0.06487247506799779 1.8502499999999986 3.2047270067043145 0 0 0 0
31 2 -0.01445531715822916 5.550749999999999 3.2047270067043145 2.3516919839766413 0 0 0
32 2 -0.01389940568250747 -1.8502500000000441 5.341211677840524 3.1355893119688565 1 0 0
33 2 -0.02528039007304469 -1.8523386723069817 5.342195092789872 5.4972636695591035 1 0 0
34 2 -0.02648049778905122 3.6990150899500183 4.275163595684067 6.360653254379481 0 0 0
42 2 -0.06487371246916747 3.7005 0 0 0 0 0
43 2 -0.01446168364120536 0 0 2.3516919839766413 1 0 0
44 2 -0.01390183153115821 -2.7019127675960894e-14 2.136484671136209 3.1355893119688565 1 0 0
45 2 -0.02528049542843291 -0.00024027333742281343 2.1341862643376817 5.496372485271512 1 0 0
46 2 -0.02646505357745614 5.552205080386383 1.06812564006751 6.3582073069089375 0 0 0
54 2 -0.06487287179806804 5.550749999999999 3.2047270067043145 0 0 0 0
55 2 -0.01445901375678455 1.8502499999999986 3.2047270067043145 2.3516919839766413 1 0 0
56 2 -0.01389914412147763 1.850250000000001 5.341211677840524 3.1355893119688565 1 0 0
57 2 -0.02527779801965108 1.8505517976606987 5.3416626463357915 5.4971115699775135 1 0 0
58 2 -0.02646737059087876 -0.001177703355019325 4.273383914674765 6.348028845038564 1 0 0
23 2 -0.02104079142691129 1.8469905066920744 1.065026495318418 8.707105254243979 0 0 0
24 2 -0.01880801767419029 -1.8430483939765374 3.2050633202363676 9.542369019098354 1 0 0
25 2 -0.02161748677586826 0.002094563444395699 6.382190272001206 11.878965819828426 0 -1 0
26 2 -0.02797068607556755 3.703122385335517 2.1325150471360916 12.646979897592228 0 0 0
35 2 -0.02108407923775935 3.700717303212533 4.276297398877238 8.709127330687386 0 0 0
36 2 -0.01885276929403972 0.0032940350808590116 6.401646334802747 9.539398206202744 1 0 0
37 2 -0.02129406075245451 -1.826772530208111 3.210895090697845 11.882845939459063 1 0 0
38 2 -0.02832999468095837 -1.8459568936622681 5.333054322821362 12.776308013792272 1 0 0
47 2 -0.02112884625836487 5.559115261105547 1.0627373046558481 8.70348232229622 0 0 0
48 2 -0.01868994214488245 1.8466744130216495 3.2058692257723274 9.55121955624135 1 0 0
49 2 -0.02145197630469474 -0.0015394901197144694 0.006070338876474954 11.945726735184053 1 0 0
50 2 -0.02925365470557744 -0.00543217830440389 2.144120869286676 12.819745308379094 1 0 0
59 2 -0.02114861630482989 0.0026951875519972486 4.270847627822151 8.688940047778427 1 0 0
60 2 -0.01863482113403239 -3.698191005641226 6.408925025973109 9.583903684584175 2 0 0
61 2 -0.021423042606591 1.8250815650647618 3.215971934392754 11.896069617364727 1 0 0
62 2 -0.02880147712789648 1.8475031907347141 5.341921559415031 12.797639008412151 1 0 0
1 1 -0.02422288635041487 3.5721533876418965 6.1815913726955385 19.95742423044371 -1 -1 0
2 1 -0.0103842467727063 1.0456590607614684 0.5354772023690649 19.720225208246177 0 0 0
4 1 -0.02350747343881759 -0.16059384919489347 2.5968782847690113 19.836823547675767 0 0 0
9 1 -0.005755523786662472 0.8741290655571932 1.8474735954785924 19.460349398296785 0 0 0
10 1 -0.0186414913584478 -0.18777030459301805 3.9818680040013934 19.904805001842334 0 0 0
11 1 -0.02900783157972133 1.2182139071354297 4.796326203445813 20.011225198736707 0 0 0
16 1 -0.005732618936828089 2.399192461245521 4.237001199450172 19.534596109799313 0 0 0
17 1 -0.01048972186063269 3.590954351369686 4.777308062547738 19.81148619663485 0 0 0
27 2 -0.02997589667163879 3.713313047368096 2.093801562049192 14.975669066229377 0 0 0
28 2 -0.01550733211471673 1.8218692166881176 1.037281360119683 15.928512742770868 0 0 0
29 2 0.006841745545646603 2.316170495143509 1.1478390328942296 18.21092012416902 0 0 0
39 2 -0.02760043268941252 -1.8446356404734943 5.293411732715153 15.141665447361678 1 0 0
40 2 -0.01341409780418351 3.6834568812547164 4.19684963580569 15.977755945683548 0 0 0
41 2 0.006038090692529866 3.477718929641618 3.3540140012412683 18.196345811818414 0 0 0
51 2 -0.03119522173919179 -0.00950169872944683 2.196803899978779 15.214941150596 1 0 0
52 2 -0.008363584032735787 5.574279537350574 1.077101254894192 16.076499001598386 0 0 0
53 2 0.01178746466615981 4.8216625355985006 1.2725114911887887 18.383670424128574 0 0 0
63 2 -0.0294506816053155 1.8617634639325769 5.348946634258649 15.169891781155288 1 0 0
64 2 -0.01101123256621907 0.027543991860951696 4.3624081581196865 16.10419443510488 1 0 0
65 2 0.01099407717183834 -0.07868327584323265 5.317023575419183 18.274970792209228 1 0 0
3 1 -0.02323426641261896 6.020091972303524 1.9120495941284943 20.07683487822629 -1 0 0
13 1 -0.03486027753800346 6.022096757400634 0.44548205938011876 20.223723175955257 0 0 0
12 1 -0.04975478417803039 1.1889900948664403 6.10233696721306 20.497196610394436 0 -1 0
5 1 -0.05374169760695714 4.6576196438554325 4.179559748846803 20.53365975423917 -1 0 0
6 1 -0.05213252446863213 -1.4551484776626686 4.7660137801541635 20.535831812229024 0 0 0
7 1 -0.0464825530437768 -1.3851028067244222 6.182432607365677 20.479772057815886 0 -1 0
8 1 -0.05602715469571787 3.6495340400473975 0.30900130540253884 20.708861526470457 0 0 0
14 1 -0.08982614538784058 3.6567371502962045 1.8683564692815198 20.951366700787023 0 0 0
15 1 -0.04870462792115594 4.718975894575957 2.731133255168906 20.58431581775567 0 0 0
66 3 0.1986515283755939 3.110498289922201 4.842952942095599 23.19277229883419 0 -1 0
69 3 0.1807584623005777 5.643945573330117 1.4977140187240254 23.63054794691525 0 -1 0
70 3 0.1638868614164858 1.5924711111371495 5.411200244067869 25.765777349764154 1 0 0
71 3 0.22566500025011 1.1542645395644664 2.4507192311288275 22.798543322583743 0 0 0
73 3 0.1815681426410241 -0.634694389360169 5.011510900378302 23.60179707658621 1 -1 0
68 3 0.1784997997440466 1.9611578790907307 2.0447176729814642 32.132267321855096 0 1 0
72 3 0.1707497824721595 6.205778967902247 2.0635723538875523 32.52315177942758 0 1 0
67 3 0.1807963595840641 0.7184425098712599 2.054492870594624 34.999761964185815 1 1 0
74 3 0.1722314746917779 3.8731499138203107 2.0552212835078043 34.613737432483475 0 1 0

Velocities

18 0 0 0
19 0 0 0
20 0 0 0
21 4.344974689631583e-05 -1.703335481298417e-05 8.375857318693934e-05
22 -4.927999159532063e-05 2.051271577895746e-05 0.0001150696864266047
30 0 0 0
31 0 0 0
32 0 0 0
33 5.1891579865155053e-05 -2.1197115066999725e-05 5.8599624013588305e-05
34 -2.963579141717215e-05 -2.1035707302846247e-05 6.153968595839905e-05
42 0 0 0
43 0 0 0
44 0 0 0
45 5.1475488024442145e-05 -5.17412552979349e-05 5.654756977062375e-05
46 -8.592368560609329e-06 -4.028679535680707e-05 8.64192052033809e-05
54 0 0 0
55 0 0 0
56 0 0 0
57 1.6604410786517153e-05 -9.492606313068494e-06 5.057479553380333e-05
58 -3.167914216447983e-05 -2.260477433864641e-05 5.6900065420092406e-05
23 -1.1327913025186099e-05 1.9252760600542118e-05 4.565726186882044e-05
24 3.485261104906413e-05 2.7883027396310166e-05 -7.0503465707656265e-06
25 -6.912660388066362e-05 -9.382009097977142e-06 1.5558359186031496e-05
26 3.383912961953586e-05 6.812285970802273e-05 7.10330578775047e-06
35 -4.563407554408979e-05 -1.845803623149621e-05 5.664777704062074e-05
36 -2.3315686927553644e-05 -1.3277474028956516e-05 -3.4960309730301477e-06
37 -4.1363742205489915e-05 -3.702680641375654e-05 -4.937637091014365e-05
38 8.398761568633469e-07 -6.132026369134483e-05 -8.5318280464593e-05
47 -1.6154749746497252e-05 5.642150043774859e-05 -1.0810545424196323e-05
48 1.4599738229644912e-05 3.087546593007289e-05 4.7063576187378286e-05
49 -1.2997816651079964e-05 1.1134172655266629e-05 -2.979547502602373e-05
50 3.15025788045392e-05 -3.392867678763138e-05 -8.837698149154514e-05
59 2.5618072305189184e-05 3.201943969006604e-05 -2.118723935630919e-05
60 -1.933304583329818e-05 5.4200717157549935e-05 -2.376697768315379e-06
61 -3.189506962865894e-05 -1.8340161257734783e-05 -7.3868631645566406e-06
62 2.609708947143367e-05 -2.40026506118845e-05 -0.00013489229949901438
1 -0.0006542024395047313 4.757607307547583e-05 0.029923018970117087
2 0.00015961586215217032 7.903020935861383e-05 0.029931354710239694
4 -0.0002806030139516108 -0.0008610583821530224 0.02990343836888526
9 -0.0004304402070589929 0.00023944610756548927 0.030063418847786186
10 -0.00016464852509928668 -0.0005711095736134874 0.029948036195607566
11 0.0004937593279744619 0.00014094216870538708 0.02976117445144018
16 -0.00034649572501432483 6.000485069088937e-05 0.030012795065792505
17 0.0002941864792917769 0.0006641139611226148 0.030126604989165726
27 3.988820829544607e-05 9.420320518928483e-05 -0.00018833379561077437
28 -0.00015756747434997104 -7.93569830752236e-06 -4.861464399517208e-05
29 0.00014615219093007205 -0.0006228262250223985 0.0005313045540958959
39 -3.065928544768196e-05 -1.9288506361071273e-05 2.5601665001396175e-05
40 3.9270068749230845e-05 0.0001145779045920664 1.6964538370321e-05
41 0.00020429400980155336 0.00014054729251924058 0.0005911879254364951
51 -7.936933128034038e-05 3.078123606122166e-05 4.924603871777417e-05
52 2.1279822984518652e-05 -2.2964502195515186e-05 -9.55196482125853e-05
53 0.00011000011787538293 0.0001411151186796749 1.9276265833625423e-05
63 8.530822527348833e-05 2.3141145733259076e-05 5.566211882601979e-05
64 3.1438063808200157e-06 -8.86542073157203e-05 2.77663519665824e-05
65 7.257529214207872e-05 -7.516802685547839e-06 -0.0001470042198546113
3 0.0007481001663361222 0.0003493290238950802 0.030140762697963647
13 -0.00025455290078289783 -0.0005654731596980328 0.030217904461383536
12 0.0004610619720579022 0.0004269982629251455 0.030322460187025748
5 -0.00013795426796147416 0.0002684329301570087 0.029616484508587945
6 -0.0008724886140975299 0.00063861307724769 0.030224069654064763
7 5.263837684723419e-05 0.0005156062629355524 0.029275239637298278
8 -9.746595344463809e-05 0.00033615322289090626 0.030017585579522575
14 0.00022235620383371604 -0.00043010850560631773 0.02987326444759482
15 -0.0001441382347154794 -0.0007655824387379415 0.029404632182251644
66 -3.129016215023493e-05 -7.634031145783027e-05 6.183736108978738e-05
69 7.894978829166556e-05 7.284941067555063e-05 3.2390459126282315e-05
70 4.4325311795936156e-05 -8.24595101577217e-05 6.170775582881339e-06
71 1.1013821227217728e-05 -1.5461271347983352e-05 5.1440874054168366e-05
73 -0.00012495498564492794 0.00010930302334578268 0.00012197671243724976
68 2.139558912083902e-06 -1.8351014611951358e-06 8.643962679007001e-06
72 3.780492956025799e-06 3.7883733749864637e-06 -1.7844017490785542e-06
67 1.2174056642864593e-06 7.93294448434601e-06 3.987779290390703e-05
74 7.6291669890688334e-06 3.3081815626943274e-07 -2.3515373508927314e-08
