LAMMPS data file via write_data, version 22 Jul 2025, timestep = 40000, units = real

70 atoms
3 atom types

0 7.401 xlo xhi
0 6.40945401340863 ylo yhi
0 40.32963854382093 zlo zhi
-3.7005 0 0 xy xz yz

Masses

1 12.01099999691024
2 28.08499999277529
3 6.939999998214724

Atoms # charge

19 2 -0.03308980503691821 0 0 0 0 0 0
20 2 -0.007531879467243256 3.7005 0 2.3516919839766413 0 0 0
21 2 -0.007171301600628228 3.7005 2.136484671136209 3.1355893119688565 0 0 0
22 2 -0.01306555110701922 3.7459778850481937 2.321058223140888 5.61250921378367 0 0 0
23 2 -0.01400030230056994 2.0490627311392267 1.059816350063915 6.571424224446322 0 0 0
31 2 -0.03310506745373354 1.8502499999999986 3.2047270067043145 0 0 0 0
32 2 -0.007561583127783694 5.550749999999999 3.2047270067043145 2.3516919839766413 0 0 0
33 2 -0.007202148140106646 -1.8502500000004032 5.341211677840524 3.1355893119688565 1 0 0
34 2 -0.01289341523069188 -1.9452989637090414 5.391394611455735 5.506790722528183 1 0 0
35 2 -0.01401490902871913 3.780383065099985 4.411077963089015 6.480587600389131 0 0 0
43 2 -0.03309123883985213 3.7005 0 0 0 0 0
44 2 -0.007576678154553279 0 0 2.3516919839766413 1 0 0
45 2 -0.007222898532646641 -2.484608259874695e-13 2.136484671136209 3.1355893119688565 1 0 0
46 2 -0.01286383086650307 0.12179521173937052 2.2316849513708226 5.55582002638034 1 0 0
47 2 -0.01391211363003658 5.530099398903378 1.1453227635810235 6.298196076950422 0 0 0
55 2 -0.03308322244341975 5.550749999999999 3.2047270067043145 0 0 0 0
56 2 -0.00758877890859613 1.8502499999999986 3.2047270067043145 2.3516919839766413 1 0 0
57 2 -0.007198951462930754 1.850250000000001 5.341211677840524 3.1355893119688565 1 0 0
58 2 -0.01298588076875346 1.9117386988666574 5.444185403945187 5.576055040409252 1 0 0
59 2 -0.01395639281628019 0.06600240011318752 4.3523680375975236 6.429727514813146 1 0 0
24 2 -0.01191844207409393 1.9506954529383 1.156180903528927 8.902844919084837 0 0 0
25 2 -0.009256308341010613 -1.8062828577588266 3.441165217394522 9.801412561201436 1 0 0
26 2 -0.009682358741431814 3.620700910685275 0.3333493492562553 12.185594015322067 0 0 0
36 2 -0.01182727596289872 3.7312764482538294 4.425153817342067 8.883381267841045 0 0 0
37 2 -0.00961885369172626 3.803462131982819 0.15157692911477383 9.716786484593984 1 1 0
38 2 -0.01063277285906146 -1.9116987240838053 3.572543147819828 12.367378226260927 1 0 0
48 2 -0.01204703780887721 5.670837863233834 1.2905516291851984 8.692621921781834 0 0 0
49 2 -0.009121459054468702 1.8764072335911577 3.2704592170497375 9.789991496525156 1 0 0
50 2 -0.009462607725315689 7.204258086486038 0.24483218148041833 12.176373127422757 0 0 0
51 2 -0.01542051752169751 -0.0533222211642999 2.3196965615893412 13.054350532303696 1 0 0
60 2 -0.01203399156975006 0.029281232357317374 4.462187946842417 8.768781769430575 1 0 0
61 2 -0.009185678937944367 -0.10003267590346335 0.23292399170903288 9.78731274641801 2 1 0
62 2 -0.008814295417488932 1.9091310766000409 3.373244930272903 12.10300943437285 1 0 0
63 2 -0.01446986901053283 1.7740410702811074 5.4767133034054964 12.927930958146812 1 0 0
39 2 -0.01895856716831751 -1.9224318274324803 5.6057977716097325 13.461308372341765 1 0 0
27 2 -0.01700379281038898 3.5959228222431294 2.5093555238888015 13.273261407663991 0 0 0
28 2 -0.01766531924715717 2.660496167456696 2.932782171504125 15.572625643717982 0 0 0
29 2 0.01672238058684075 1.1668258925567783 1.4682519380106815 17.413609416030425 0 0 0
30 2 0.01223954248442886 -1.1871023431981367 3.1199804813186756 17.18654764908145 0 0 0
40 2 -0.01696035663689123 -3.3651381406009233 6.406769855792254 15.430135187219829 1 0 0
41 2 0.006222598916199054 2.969055641993647 4.934924938267999 16.872433030999716 0 0 0
42 2 0.01845315375890127 0.6064151805644851 6.343919655810491 17.383605297477896 0 0 0
52 2 -0.01772284368438675 0.16936640557400282 2.613450993242809 15.421041061083057 1 0 0
53 2 -0.01896118890182489 5.012978334915068 1.8036451142409216 15.381134626154255 0 0 0
54 2 0.01213684329945598 3.8752413441771214 2.0256876204884726 17.369735839687056 0 0 0
64 2 -0.02065233467989914 1.6950254317390403 5.8481200149629355 15.111956044893752 1 0 0
65 2 -0.01600032072743115 -0.5608797150788171 4.859187071293905 15.501215796980388 1 0 0
66 2 0.01761671991837943 -2.0382248254327395 5.47268454848854 17.262378178699375 1 0 0
11 1 -0.02298974700804647 0.7564507574364061 5.384999975151809 20.500700055966863 11 4 0
12 1 -0.01630403436755752 2.007722003716918 6.0225534405048995 20.38354914398335 11 4 0
13 1 -0.01878351989473561 5.732029232429093 1.0547427557448177 20.379518549736474 11 4 0
17 1 -0.01511728844805528 3.2623252359353887 5.272384500371954 20.338627502923913 11 4 0
2 1 -0.0271465273952363 2.0782227498692194 1.7390315921050068 20.48019962348662 11 4 0
3 1 -0.02125208292765681 -0.3180928243681028 3.1920616012112824 20.417088106033432 11 4 0
4 1 -0.02430258164930515 0.9140629645670807 3.9190546791572505 20.4594472669002 11 4 0
5 1 -0.01291429123694998 -1.6924237816748684 5.290547242014633 20.327223353006776 11 4 0
6 1 -0.0193776058145201 -0.47205116454158363 6.086407619450742 20.465576596703446 11 4 0
7 1 -0.02665423168523163 3.316266110209736 1.053942500281233 20.49096831001423 11 4 0
9 1 -0.02105907095220017 2.162874263156124 3.179129958644153 20.366302531389298 11 4 0
14 1 -0.02200723542547121 -0.3380318007249446 1.7270266052544292 20.437094379926698 12 4 0
18 1 -0.01719560755873067 -2.943528501076206 5.967611978754015 20.384774521895785 12 4 0
1 1 -0.01469859987318794 0.8781597621801486 1.0257539965865725 20.36076214008263 11 4 0
8 1 -0.01671305779310502 4.521516623280127 1.7740125507810869 20.281029969847253 11 4 0
10 1 -0.03142767750665092 3.316312604228607 3.8548927422395165 20.473143837380345 11 4 0
15 1 -0.02127368333729464 4.507202205384071 3.1843349285650655 20.3174180455413 11 4 0
16 1 -0.02050006941436238 -1.5967975261615779 3.9408841032344593 20.38009362338763 12 4 0
67 3 0.2237636701733069 1.3399381912903214 3.5072764436364596 23.780399382623653 -6 21 0
68 3 0.2569067557387202 3.7328596144734387 2.7261469933617057 23.179007916807308 -7 21 0
69 3 0.1978004364773019 -1.146932958880634 2.54697999716873 25.37059925779825 -1 23 0
70 3 0.2043869524243444 3.376647780456844 3.0743662643335243 26.090244960678096 -6 21 0

Velocities

19 0 0 0
20 0 0 0
21 0 0 0
22 -0.0013551023425010457 0.00014248431337322587 0.0047922137929383895
23 0.003038818525038932 0.0010264542245355906 -0.008994314526381398
31 0 0 0
32 0 0 0
33 0 0 0
34 -0.002406684616284617 0.010638359767468252 0.0014104246709169205
35 -0.0033014545986890954 -0.0017874004144478146 0.0020180382210088373
43 0 0 0
44 0 0 0
45 0 0 0
46 0.00850052571211086 -0.0013020870223989845 0.002744962049830831
47 0.01031975348504986 -0.005490374009631608 -0.004464309445861062
55 0 0 0
56 0 0 0
57 0 0 0
58 -0.006166643772338292 0.004812482220452933 0.003787572157849658
59 0.0013616612512428975 0.005015191272799093 -0.00357021155076645
24 -0.0036931458026704285 0.000567193945305377 0.005272605128624889
25 4.488941692681375e-05 0.000754855391676498 -0.0029491871222643196
26 0.003728149959269708 -0.0015189457750757825 0.0016740995889048265
36 0.00025900667614946654 -0.010617472145486449 0.005709726355304843
37 0.0032675648262593887 0.0076177570903606315 -0.002390704480747019
38 -0.002167643375637802 -0.004276536906879281 0.006055350344207105
48 -0.002907835427063154 -0.0034603697411470535 0.0013236326073918741
49 0.0017780427398972503 -0.006778102720073351 0.006696714216627877
50 0.00222000835488083 -0.0018056504848655685 -0.004355490992362421
51 0.0022568734984014004 0.0007729828965495025 -0.0004534210458578592
60 -0.0011969209857998514 0.006361811015162203 0.002433823452090803
61 -0.0005884727231316057 -0.005408557072653215 -0.01351755184855015
62 0.008164188946108725 -0.003927929288885486 0.00964063071489794
63 0.0034534415097620948 -0.00269672468882723 -0.010504655058374716
39 0.005332526907901224 0.0015349660371849836 0.0005188907598063267
27 0.004948196579745909 -0.004395522042996504 -0.005249280583136533
28 -0.0025656506049133504 -0.003569852449743105 -0.0002783311245891873
29 0.010400032557730497 -0.0069909387218164 0.0027620677359365222
30 -0.0017840407558528976 -0.006057035871133967 0.0016707282128543325
40 -0.0022598537525501472 -0.005925619036211189 0.00976680559552158
41 0.003204739001170607 -0.007666536647613138 -0.004209764110762852
42 0.00045418987556649075 -0.007356927605492176 5.836976080415015e-05
52 0.004101822151827132 0.004240908832679963 0.0053008572678442615
53 0.007701185266329473 -0.009412201526746655 -0.01039500834796487
54 -0.009275462537198007 -0.005901203474355544 -0.005809869361091984
64 -0.0016012397075104194 -0.005947681974710253 -0.002373780710259024
65 0.0002194731949676505 -0.0035890350596581135 0.0011805042224376965
66 0.007815009825598252 -0.0004644988902683153 0.005978183910178946
11 0.008582420607423046 0.012285923790712083 0.013761644260335139
12 -0.0005576564668437988 0.006416440016454 -0.018212687934870835
13 0.011334616972366698 -0.003761772393296875 0.01230857074947779
17 0.004138174622927446 0.0016988725769883845 -0.004572031808989733
2 0.01038513800428244 0.010389464113565177 0.01227668857011818
3 -0.005192812026636584 -0.010446646960084224 0.009252069521912178
4 -0.0037423530979261753 0.007098211517290615 -0.012843386148699284
5 0.01137295328210753 0.003479170309304821 -0.006062998850404043
6 0.004434716824743757 0.015100395939529302 -0.007997989273506975
7 0.006151427929324837 0.0003306985941062361 0.0009940236433726626
9 -0.006938660550318122 -0.004181231417579172 -0.006927919655198065
14 0.003194613332839392 0.013111917392256471 0.00384248350986913
18 -0.0018715012072233607 -0.008698541378283667 -0.0008565381313955704
1 0.006317403110175084 0.007568629581417833 0.010849112986818277
8 0.005989900772286015 -0.0012945159602644083 0.0010772941645395878
10 0.015942877651784825 -0.0022516782383178915 0.006841699199545118
15 0.004808609456644699 0.004394482826661762 -0.008061076388535211
16 0.006608101445595298 -0.014830410215613066 -0.005668958414388352
67 -0.0021673655780223124 0.005391154635987692 -0.01250664955147912
68 0.015675489786009824 -0.00608750452776347 -0.014033242530016359
69 -0.021902856994088612 0.005546977842295685 0.0031457083651841005
70 -0.004458627244303219 0.011722414845534606 0.010377214158650738
