(written by ASE)

6 atoms
3 atom types

0.0                      20  xlo xhi
0.0                      20  ylo yhi
0.0                      20  zlo zhi

Masses

1      12.010999996910238 # C
2      28.084999992775295 # Si
3      6.9399999982147245 # Li

Atoms # charge

     1   1   0.0      8.6500000000000004      8.6500000000000004                      10
     2   1   0.0      11.350000000000001      8.6500000000000004                      10
     3   2   0.0      8.6500000000000004      11.350000000000001                      10
     4   2   0.0      11.350000000000001      11.350000000000001                      10
     5   3   0.0                      10                      10      12.699999999999999
     6   3   0.0                      10                      10      7.2999999999999998
