ITEM: TIMESTEP
0
ITEM: NUMBER OF ATOMS
74
ITEM: BOX BOUNDS xy xz yz pp pp pp
-3.7004999999999999e+00 7.4009999999999998e+00 -3.7004999999999999e+00
0.0000000000000000e+00 6.4094540134086300e+00 0.0000000000000000e+00
0.0000000000000000e+00 4.0329638543820927e+01 0.0000000000000000e+00
ITEM: ATOMS id type xs ys zs
18 2 0 0 0
19 2 0.5 0 0.0583118
20 2 0.666667 0.333333 0.077749
21 2 0.666667 0.333333 0.135642
22 2 0.333334 0.166667 0.155914
30 2 0.5 0.5 0
31 2 1 0.5 0.0583118
32 2 0.166667 0.833333 0.077749
33 2 0.166667 0.833333 0.135642
34 2 0.833333 0.666666 0.155914
42 2 0.5 0 0
43 2 0 0 0.0583118
44 2 0.166667 0.333333 0.077749
45 2 0.166667 0.333334 0.135642
46 2 0.833333 0.166667 0.155914
54 2 1 0.5 0
55 2 0.5 0.5 0.0583118
56 2 0.666667 0.833333 0.077749
57 2 0.666666 0.833333 0.135642
58 2 0.333333 0.666667 0.155915
23 2 0.333335 0.166667 0.213432
24 2 1 0.500001 0.233619
25 2 0.500008 6.3733e-05 0.291071
26 2 0.666668 0.333332 0.311378
35 2 0.833333 0.666665 0.213432
36 2 0.499999 4.4311e-07 0.233619
37 2 0.999936 0.499992 0.291071
38 2 0.166673 0.833327 0.311349
47 2 0.833332 0.166668 0.213432
48 2 0.500001 0.499999 0.233619
49 2 1.53169e-05 0.999985 0.29105
50 2 0.166667 0.333339 0.311328
59 2 0.333333 0.666667 0.213432
60 2 7.04526e-07 0.999999 0.233618
61 2 0.50004 0.49996 0.291063
62 2 0.666661 0.833333 0.311328
1 1 0.999663 0.000336929 0.497619
2 1 0.222033 0.117671 0.496009
3 1 0.0019752 0.331792 0.495609
4 1 0.229409 0.437994 0.495747
5 1 0.993907 0.667011 0.495528
6 1 0.22243 0.77757 0.495696
7 1 0.332989 0.00609304 0.495528
8 1 0.558666 0.12148 0.497112
9 1 0.310708 0.318778 0.494995
10 1 0.337321 0.662679 0.496288
11 1 0.562006 0.770591 0.495747
12 1 0.668208 0.998025 0.495609
13 1 0.891487 0.108513 0.495946
14 1 0.675531 0.324469 0.499113
15 1 0.87852 0.441334 0.497112
16 1 0.681222 0.689292 0.494995
17 1 0.882329 0.777967 0.496009
27 2 0.666644 0.333356 0.369369
28 2 0.333341 0.166476 0.389256
29 2 0.330823 0.171252 0.44904
39 2 0.166749 0.833251 0.36945
40 2 0.833524 0.666659 0.389256
41 2 0.828748 0.669177 0.44904
51 2 0.166785 0.333492 0.369438
52 2 0.833222 0.166778 0.389125
53 2 0.836131 0.163869 0.447496
63 2 0.666508 0.833215 0.369438
64 2 0.333323 0.666677 0.389432
65 2 0.331359 0.668641 0.448039
66 3 0.167458 0.166797 0.553842
67 3 0.166987 0.499829 0.554412
68 3 0.166859 0.833141 0.554464
69 3 0.501389 0.167874 0.553849
70 3 0.500403 0.499597 0.553783
71 3 0.500171 0.833013 0.554412
72 3 0.833619 0.166381 0.554376
73 3 0.832126 0.498611 0.553849
74 3 0.833203 0.832542 0.553842
ITEM: TIMESTEP
25
ITEM: NUMBER OF ATOMS
74
ITEM: BOX BOUNDS xy xz yz pp pp pp
-3.7004999999999999e+00 7.4009999999999998e+00 -3.7004999999999999e+00
0.0000000000000000e+00 6.4094540134086300e+00 0.0000000000000000e+00
0.0000000000000000e+00 4.0329638543820927e+01 0.0000000000000000e+00
ITEM: ATOMS id type xs ys zs
18 2 0 0 0
19 2 0.5 0 0.0583118
20 2 0.666667 0.333333 0.077749
21 2 0.671596 0.33678 0.13498
22 2 0.333484 0.165264 0.155643
30 2 0.5 0.5 0
31 2 1 0.5 0.0583118
32 2 0.166667 0.833333 0.077749
33 2 0.168221 0.835058 0.135523
34 2 0.830678 0.66144 0.156311
42 2 0.5 0 0
43 2 0 0 0.0583118
44 2 0.166667 0.333333 0.077749
45 2 0.16721 0.329426 0.135514
46 2 0.831819 0.167351 0.155703
54 2 1 0.5 0
55 2 0.5 0.5 0.0583118
56 2 0.666667 0.833333 0.077749
57 2 0.665289 0.837095 0.135664
58 2 0.334898 0.663729 0.155496
23 2 0.335051 0.168436 0.213429
24 2 0.998078 0.496752 0.23328
25 2 0.495323 -6.8994e-05 0.291247
26 2 0.662602 0.332763 0.311858
35 2 0.837382 0.671194 0.214042
36 2 0.495871 -0.000406354 0.233636
37 2 1.00207 0.502084 0.291106
38 2 0.166691 0.831911 0.311798
47 2 0.833131 0.163603 0.213682
48 2 0.505656 0.50361 0.232636
49 2 -0.00337739 0.997395 0.291038
50 2 0.172022 0.335745 0.312296
59 2 0.332701 0.667142 0.212991
60 2 -0.00241805 0.995197 0.233928
61 2 0.49661 0.498645 0.290462
62 2 0.663818 0.833934 0.311795
1 1 0.998341 -0.00153688 0.498317
2 1 0.221664 0.110726 0.496194
3 1 -0.00164531 0.333038 0.494488
4 1 0.223941 0.4429 0.494196
5 1 0.995496 0.664153 0.496069
6 1 0.222909 0.781169 0.494998
7 1 0.341918 0.00675758 0.495154
8 1 0.563409 0.115536 0.498034
9 1 0.310418 0.31753 0.494576
10 1 0.336842 0.663968 0.496512
11 1 0.555124 0.771019 0.49448
12 1 0.666089 0.998049 0.495148
13 1 0.884361 0.10655 0.496816
14 1 0.673904 0.317226 0.499999
15 1 0.87855 0.430585 0.498525
16 1 0.67951 0.690183 0.493786
17 1 0.894313 0.781388 0.496269
27 2 0.661049 0.332185 0.36913
28 2 0.337954 0.169412 0.389536
29 2 0.331248 0.176023 0.448961
39 2 0.169073 0.835541 0.36962
40 2 0.84067 0.669793 0.389194
41 2 0.822714 0.670428 0.448704
51 2 0.167092 0.33137 0.369732
52 2 0.833658 0.165084 0.389319
53 2 0.83872 0.165314 0.446994
63 2 0.664575 0.835101 0.369786
64 2 0.332486 0.667825 0.389634
65 2 0.329913 0.672636 0.448501
66 3 0.165794 0.165743 0.553739
67 3 0.173334 0.503524 0.555575
68 3 0.166134 0.831822 0.556076
69 3 0.506701 0.162964 0.553009
70 3 0.504139 0.48944 0.553446
71 3 0.496165 0.821436 0.553674
72 3 0.832441 0.165072 0.555263
73 3 0.843634 0.502333 0.553238
74 3 0.834009 0.845698 0.554241
ITEM: TIMESTEP
50
ITEM: NUMBER OF ATOMS
74
ITEM: BOX BOUNDS xy xz yz pp pp pp
-3.7004999999999999e+00 7.4009999999999998e+00 -3.7004999999999999e+00
0.0000000000000000e+00 6.4094540134086300e+00 0.0000000000000000e+00
0.0000000000000000e+00 4.0329638543820927e+01 0.0000000000000000e+00
ITEM: ATOMS id type xs ys zs
18 2 0 0 0
19 2 0.5 0 0.0583118
20 2 0.666667 0.333333 0.077749
21 2 0.675143 0.339211 0.134391
22 2 0.33425 0.164148 0.155457
30 2 0.5 0.5 0
31 2 1 0.5 0.0583118
32 2 0.166667 0.833333 0.077749
33 2 0.169087 0.835675 0.135387
34 2 0.829137 0.658428 0.156641
42 2 0.5 0 0
43 2 0 0 0.0583118
44 2 0.166667 0.333333 0.077749
45 2 0.167473 0.325984 0.135342
46 2 0.831025 0.168091 0.155626
54 2 1 0.5 0
55 2 0.5 0.5 0.0583118
56 2 0.666667 0.833333 0.077749
57 2 0.664505 0.839712 0.135615
58 2 0.335794 0.66128 0.155143
23 2 0.336189 0.169978 0.21336
24 2 0.996828 0.493773 0.233083
25 2 0.491697 6.01833e-05 0.291372
26 2 0.659528 0.332703 0.312236
35 2 0.840879 0.674048 0.214446
36 2 0.492678 -0.000743476 0.233683
37 2 1.00336 0.502902 0.291171
38 2 0.165915 0.830617 0.312239
47 2 0.832404 0.1607 0.213865
48 2 0.509695 0.506527 0.231861
49 2 -0.00624095 0.995576 0.291154
50 2 0.175505 0.337155 0.313099
59 2 0.332016 0.667291 0.212566
60 2 -0.00348271 0.992585 0.234275
61 2 0.494244 0.498101 0.28992
62 2 0.66108 0.834329 0.312235
1 1 1.00295 -0.00237844 0.49998
2 1 0.224275 0.10916 0.49588
3 1 -0.00797072 0.327308 0.492837
4 1 0.213817 0.436172 0.493108
5 1 0.992887 0.65733 0.495863
6 1 0.221476 0.78232 0.494767
7 1 0.347159 0.0115919 0.494111
8 1 0.563976 0.111937 0.499192
9 1 0.30836 0.314632 0.493031
10 1 0.334877 0.66411 0.497666
11 1 0.561446 0.778494 0.493572
12 1 0.662196 0.996926 0.494143
13 1 0.883992 0.111706 0.496942
14 1 0.678283 0.307872 0.502464
15 1 0.878622 0.431608 0.49998
16 1 0.687766 0.693758 0.491749
17 1 0.888734 0.775818 0.495849
27 2 0.657957 0.332138 0.369072
28 2 0.341312 0.171482 0.390128
29 2 0.332081 0.182284 0.4494
39 2 0.171143 0.838023 0.369733
40 2 0.846283 0.672388 0.389374
41 2 0.815151 0.670825 0.448955
51 2 0.167289 0.329434 0.37003
52 2 0.833602 0.164108 0.389551
53 2 0.841676 0.166575 0.446913
63 2 0.663932 0.836473 0.370059
64 2 0.331657 0.668344 0.389702
65 2 0.32772 0.67653 0.447287
66 3 0.165675 0.164769 0.554162
67 3 0.179484 0.505561 0.557925
68 3 0.166075 0.831141 0.558952
69 3 0.514709 0.160543 0.551662
70 3 0.509045 0.480009 0.553814
71 3 0.492751 0.810171 0.553971
72 3 0.832106 0.164544 0.557417
73 3 0.851358 0.503188 0.55235
74 3 0.834974 0.855393 0.555259
ITEM: TIMESTEP
75
ITEM: NUMBER OF ATOMS
74
ITEM: BOX BOUNDS xy xz yz pp pp pp
-3.7004999999999999e+00 7.4009999999999998e+00 -3.7004999999999999e+00
0.0000000000000000e+00 6.4094540134086300e+00 0.0000000000000000e+00
0.0000000000000000e+00 4.0329638543820927e+01 0.0000000000000000e+00
ITEM: ATOMS id type xs ys zs
18 2 0 0 0
19 2 0.5 0 0.0583118
20 2 0.666667 0.333333 0.077749
21 2 0.676491 0.340036 0.134002
22 2 0.335882 0.163456 0.155388
30 2 0.5 0.5 0
31 2 1 0.5 0.0583118
32 2 0.166667 0.833333 0.077749
33 2 0.168922 0.834594 0.135274
34 2 0.829389 0.658893 0.156827
42 2 0.5 0 0
43 2 0 0 0.0583118
44 2 0.166667 0.333333 0.077749
45 2 0.167329 0.323439 0.135158
46 2 0.83134 0.168812 0.155739
54 2 1 0.5 0
55 2 0.5 0.5 0.0583118
56 2 0.666667 0.833333 0.077749
57 2 0.664631 0.840475 0.135497
58 2 0.335648 0.659667 0.15488
23 2 0.336446 0.171122 0.213214
24 2 0.996672 0.491347 0.233097
25 2 0.489798 0.000608446 0.291419
26 2 0.658025 0.333412 0.312385
35 2 0.843381 0.674193 0.214545
36 2 0.490997 -0.00102131 0.233757
37 2 1.00327 0.501744 0.29128
38 2 0.163962 0.829583 0.312555
47 2 0.830882 0.158174 0.213961
48 2 0.51107 0.50825 0.231423
49 2 -0.00823659 0.994965 0.291464
50 2 0.176074 0.337007 0.313535
59 2 0.331321 0.666978 0.212206
60 2 -0.00245512 0.993385 0.234651
61 2 0.493564 0.49876 0.289506
62 2 0.65861 0.834396 0.31254
1 1 1.00718 -0.00492264 0.501774
2 1 0.223821 0.113657 0.495476
3 1 -0.0122014 0.32811 0.490729
4 1 0.208184 0.426992 0.491832
5 1 0.98905 0.654451 0.494767
6 1 0.221316 0.776434 0.49414
7 1 0.344741 0.0112138 0.492486
8 1 0.561161 0.111364 0.500506
9 1 0.302114 0.31284 0.490652
10 1 0.331055 0.6635 0.498126
11 1 0.565004 0.782907 0.492344
12 1 0.661274 0.999249 0.492402
13 1 0.889344 0.110393 0.496522
14 1 0.687531 0.30125 0.50609
15 1 0.87991 0.435233 0.501112
16 1 0.690166 0.69271 0.489147
17 1 0.887651 0.776216 0.495317
27 2 0.659011 0.333952 0.369247
28 2 0.342827 0.172265 0.391024
29 2 0.334372 0.1902 0.450214
39 2 0.172994 0.840101 0.369906
40 2 0.849159 0.673833 0.389838
41 2 0.806811 0.669745 0.449606
51 2 0.167508 0.328643 0.370432
52 2 0.832702 0.164233 0.389793
53 2 0.844965 0.16722 0.447331
63 2 0.664554 0.836623 0.370352
64 2 0.330987 0.668016 0.389817
65 2 0.325153 0.680149 0.446284
66 3 0.167478 0.163931 0.554839
67 3 0.184602 0.504841 0.561386
68 3 0.166983 0.831963 0.563052
69 3 0.524761 0.160719 0.549557
70 3 0.514918 0.472375 0.554843
71 3 0.490393 0.800209 0.555107
72 3 0.832896 0.165597 0.560936
73 3 0.854091 0.501008 0.551018
74 3 0.836268 0.859994 0.55683
ITEM: TIMESTEP
100
ITEM: NUMBER OF ATOMS
74
ITEM: BOX BOUNDS xy xz yz pp pp pp
-3.7004999999999999e+00 7.4009999999999998e+00 -3.7004999999999999e+00
0.0000000000000000e+00 6.4094540134086300e+00 0.0000000000000000e+00
0.0000000000000000e+00 4.0329638543820927e+01 0.0000000000000000e+00
ITEM: ATOMS id type xs ys zs
18 2 0 0 0
19 2 0.5 0 0.0583118
20 2 0.666667 0.333333 0.077749
21 2 0.675675 0.339329 0.133917
22 2 0.33814 0.163134 0.155425
30 2 0.5 0.5 0
31 2 1 0.5 0.0583118
32 2 0.166667 0.833333 0.077749
33 2 0.167841 0.832005 0.135212
34 2 0.831347 0.662616 0.156832
42 2 0.5 0 0
43 2 0 0 0.0583118
44 2 0.166667 0.333333 0.077749
45 2 0.166882 0.32207 0.135008
46 2 0.832658 0.169289 0.156015
54 2 1 0.5 0
55 2 0.5 0.5 0.0583118
56 2 0.666667 0.833333 0.077749
57 2 0.665673 0.83936 0.135353
58 2 0.334524 0.658969 0.154715
23 2 0.335889 0.171793 0.213032
24 2 0.997573 0.489665 0.233328
25 2 0.489557 0.00148814 0.291421
26 2 0.658157 0.334822 0.31229
35 2 0.844728 0.67188 0.214371
36 2 0.490854 -0.00130008 0.233847
37 2 1.00174 0.498784 0.291448
38 2 0.161074 0.828928 0.312705
47 2 0.828716 0.156249 0.213984
48 2 0.509816 0.508668 0.23135
49 2 -0.00925467 0.995544 0.291965
50 2 0.173827 0.335352 0.313559
59 2 0.330749 0.666302 0.211963
60 2 0.000378198 0.997129 0.235012
61 2 0.494495 0.500547 0.289288
62 2 0.656571 0.834138 0.312666
1 1 1.00464 -0.0085734 0.503842
2 1 0.215733 0.106964 0.49599
3 1 -0.00947605 0.335719 0.489095
4 1 0.205038 0.435006 0.491354
5 1 0.987039 0.656847 0.493221
6 1 0.219655 0.770058 0.493353
7 1 0.339464 0.00544062 0.491683
8 1 0.555195 0.101261 0.502007
9 1 0.301645 0.320631 0.488885
10 1 0.329694 0.657846 0.497572
11 1 0.559974 0.778736 0.491271
12 1 0.664851 1.00287 0.490656
13 1 0.892968 0.102551 0.495966
14 1 0.690258 0.305728 0.509911
15 1 0.891942 0.439908 0.501767
16 1 0.681865 0.690996 0.487314
17 1 0.893934 0.781901 0.494925
27 2 0.664034 0.337546 0.369516
28 2 0.342622 0.171715 0.391837
29 2 0.340735 0.19925 0.449969
39 2 0.174354 0.841449 0.370017
40 2 0.849168 0.674089 0.39052
41 2 0.799528 0.666463 0.450003
51 2 0.167666 0.32923 0.370722
52 2 0.830986 0.165475 0.389916
53 2 0.847531 0.166569 0.4474
63 2 0.666254 0.835394 0.370551
64 2 0.330759 0.666988 0.389827
65 2 0.322135 0.683544 0.445415
66 3 0.170791 0.162902 0.555684
67 3 0.187621 0.500931 0.565757
68 3 0.169003 0.834394 0.568173
69 3 0.528482 0.157262 0.548916
70 3 0.521227 0.467806 0.556555
71 3 0.489534 0.79259 0.556808
72 3 0.835059 0.16793 0.565832
73 3 0.855771 0.500428 0.550197
74 3 0.837654 0.859063 0.558801
ITEM: TIMESTEP
125
ITEM: NUMBER OF ATOMS
74
ITEM: BOX BOUNDS xy xz yz pp pp pp
-3.7004999999999999e+00 7.4009999999999998e+00 -3.7004999999999999e+00
0.0000000000000000e+00 6.4094540134086300e+00 0.0000000000000000e+00
0.0000000000000000e+00 4.0329638543820927e+01 0.0000000000000000e+00
ITEM: ATOMS id type xs ys zs
18 2 0 0 0
19 2 0.5 0 0.0583118
20 2 0.666667 0.333333 0.077749
21 2 0.673417 0.337666 0.134178
22 2 0.340467 0.163012 0.155528
30 2 0.5 0.5 0
31 2 1 0.5 0.0583118
32 2 0.166667 0.833333 0.077749
33 2 0.166313 0.828701 0.135211
34 2 0.834303 0.668202 0.156678
42 2 0.5 0 0
43 2 0 0 0.0583118
44 2 0.166667 0.333333 0.077749
45 2 0.166402 0.321918 0.134934
46 2 0.834491 0.169257 0.156372
54 2 1 0.5 0
55 2 0.5 0.5 0.0583118
56 2 0.666667 0.833333 0.077749
57 2 0.667378 0.836919 0.135239
58 2 0.332842 0.658988 0.15464
23 2 0.334875 0.17201 0.212878
24 2 0.999098 0.488745 0.233724
25 2 0.490359 0.00246195 0.291426
26 2 0.659599 0.336639 0.312016
35 2 0.845021 0.66833 0.214052
36 2 0.491803 -0.00164097 0.233936
37 2 0.999085 0.494852 0.291658
38 2 0.157885 0.828668 0.312686
47 2 0.826387 0.155062 0.213971
48 2 0.506919 0.508057 0.23158
49 2 -0.00946065 0.996908 0.292558
50 2 0.169715 0.332719 0.313226
59 2 0.330423 0.665497 0.211873
60 2 0.00395681 1.00212 0.235297
61 2 0.496454 0.503021 0.289289
62 2 0.655075 0.833672 0.312617
1 1 1.00207 -0.00768235 0.505811
2 1 0.218728 0.113262 0.49572
3 1 -0.00386846 0.337437 0.488393
4 1 0.21325 0.439412 0.491881
5 1 0.993053 0.662099 0.492472
6 1 0.215137 0.773136 0.493235
7 1 0.331886 0.00166247 0.491585
8 1 0.555052 0.0987744 0.502697
9 1 0.289339 0.318501 0.488028
10 1 0.333258 0.652768 0.496968
11 1 0.55541 0.77481 0.491478
12 1 0.667457 0.998514 0.489573
13 1 0.892379 0.0996111 0.495134
14 1 0.690169 0.310459 0.512108
15 1 0.896015 0.439111 0.502647
16 1 0.674489 0.6986 0.488051
17 1 0.887695 0.781242 0.494682
27 2 0.67077 0.341589 0.369836
28 2 0.341247 0.170303 0.392624
29 2 0.349124 0.207566 0.45007
39 2 0.175097 0.842572 0.369951
40 2 0.847358 0.673759 0.391106
41 2 0.793227 0.658308 0.449198
51 2 0.167703 0.330187 0.370886
52 2 0.828857 0.167529 0.389925
53 2 0.849579 0.165414 0.447349
63 2 0.668773 0.833622 0.370456
64 2 0.331263 0.665575 0.389411
65 2 0.318505 0.687403 0.443338
66 3 0.175139 0.161846 0.556371
67 3 0.188021 0.494249 0.570884
68 3 0.17194 0.837604 0.574082
69 3 0.523285 0.148669 0.550991
70 3 0.527308 0.466134 0.558752
71 3 0.490351 0.787945 0.558889
72 3 0.837855 0.171026 0.571926
73 3 0.8579 0.502889 0.55033
74 3 0.838946 0.853515 0.560976
ITEM: TIMESTEP
150
ITEM: NUMBER OF ATOMS
74
ITEM: BOX BOUNDS xy xz yz pp pp pp
-3.7004999999999999e+00 7.4009999999999998e+00 -3.7004999999999999e+00
0.0000000000000000e+00 6.4094540134086300e+00 0.0000000000000000e+00
0.0000000000000000e+00 4.0329638543820927e+01 0.0000000000000000e+00
ITEM: ATOMS id type xs ys zs
18 2 0 0 0
19 2 0.5 0 0.0583118
20 2 0.666667 0.333333 0.077749
21 2 0.670788 0.335788 0.134736
22 2 0.342152 0.162908 0.155653
30 2 0.5 0.5 0
31 2 1 0.5 0.0583118
32 2 0.166667 0.833333 0.077749
33 2 0.165023 0.82578 0.13525
34 2 0.837282 0.67368 0.156435
42 2 0.5 0 0
43 2 0 0 0.0583118
44 2 0.166667 0.333333 0.077749
45 2 0.166207 0.322834 0.134965
46 2 0.83619 0.168535 0.156705
54 2 1 0.5 0
55 2 0.5 0.5 0.0583118
56 2 0.666667 0.833333 0.077749
57 2 0.669241 0.834031 0.135199
58 2 0.331224 0.659386 0.154648
23 2 0.333905 0.171831 0.212811
24 2 0.000650932 0.48851 0.234199
25 2 0.491444 0.00328956 0.291448
26 2 0.661757 0.338436 0.311672
35 2 0.844437 0.664951 0.213737
36 2 0.493179 0.997916 0.234013
37 2 0.99587 0.491101 0.291854
38 2 0.155176 0.828722 0.312503
47 2 0.824568 0.154739 0.21396
48 2 0.503723 0.506837 0.232009
49 2 0.990854 0.998477 0.293058
50 2 0.165142 0.329961 0.312671
59 2 0.330399 0.66484 0.211951
60 2 0.00696276 0.0063976 0.235454
61 2 0.498589 0.50547 0.289479
62 2 0.654245 0.833192 0.312388
1 1 0.00199331 0.995397 0.506152
2 1 0.214103 0.108935 0.495815
3 1 0.00298851 0.333865 0.488403
4 1 0.217954 0.44516 0.492041
5 1 0.996174 0.666803 0.491503
6 1 0.216174 0.779155 0.492218
7 1 0.329552 0.00116491 0.491749
8 1 0.55982 0.103851 0.502418
9 1 0.286114 0.317402 0.487309
10 1 0.336657 0.659035 0.495076
11 1 0.545768 0.776838 0.491086
12 1 0.66205 0.990089 0.48911
13 1 0.890651 0.103116 0.494058
14 1 0.68421 0.304811 0.51219
15 1 0.895561 0.441368 0.502685
16 1 0.669681 0.69881 0.489156
17 1 0.885792 0.783268 0.49464
27 2 0.677027 0.345205 0.370202
28 2 0.339406 0.168475 0.393257
29 2 0.360965 0.215793 0.450367
39 2 0.175375 0.842772 0.369994
40 2 0.845165 0.673548 0.391766
41 2 0.787116 0.646869 0.44857
51 2 0.167662 0.3316 0.37107
52 2 0.82696 0.169778 0.389947
53 2 0.85074 0.163498 0.447652
63 2 0.670874 0.831579 0.370405
64 2 0.332701 0.664325 0.388823
65 2 0.314864 0.691764 0.443007
66 3 0.178688 0.160099 0.556676
67 3 0.18632 0.486095 0.57652
68 3 0.175263 0.840521 0.580536
69 3 0.511824 0.135019 0.554894
70 3 0.532353 0.466702 0.561341
71 3 0.492154 0.786105 0.561174
72 3 0.840254 0.173882 0.578897
73 3 0.863605 0.510607 0.552019
74 3 0.840712 0.845737 0.56319
ITEM: TIMESTEP
175
ITEM: NUMBER OF ATOMS
74
ITEM: BOX BOUNDS xy xz yz pp pp pp
-3.7004999999999999e+00 7.4009999999999998e+00 -3.7004999999999999e+00
0.0000000000000000e+00 6.4094540134086300e+00 0.0000000000000000e+00
0.0000000000000000e+00 4.0329638543820927e+01 0.0000000000000000e+00
ITEM: ATOMS id type xs ys zs
18 2 0 0 0
19 2 0.5 0 0.0583118
20 2 0.666667 0.333333 0.077749
21 2 0.668865 0.334349 0.135453
22 2 0.342562 0.162697 0.155772
30 2 0.5 0.5 0
31 2 1 0.5 0.0583118
32 2 0.166667 0.833333 0.077749
33 2 0.164632 0.824258 0.135289
34 2 0.839408 0.677159 0.156199
42 2 0.5 0 0
43 2 0 0 0.0583118
44 2 0.166667 0.333333 0.077749
45 2 0.16651 0.324503 0.135098
46 2 0.837197 0.167121 0.156918
54 2 1 0.5 0
55 2 0.5 0.5 0.0583118
56 2 0.666667 0.833333 0.077749
57 2 0.670596 0.831615 0.135235
58 2 0.330293 0.659843 0.154744
23 2 0.33343 0.171333 0.212865
24 2 0.00169819 0.488889 0.234645
25 2 0.492154 0.00375234 0.291494
26 2 0.663807 0.339721 0.311403
35 2 0.843152 0.66278 0.213539
36 2 0.494341 0.997366 0.23407
37 2 0.992911 0.488721 0.291997
38 2 0.15365 0.828978 0.312237
47 2 0.823873 0.155348 0.213976
48 2 0.501381 0.5054 0.232524
49 2 0.991363 0.999643 0.29332
50 2 0.161573 0.328035 0.312147
59 2 0.330679 0.664534 0.212179
60 2 0.00833115 0.00844645 0.235461
61 2 0.500006 0.507101 0.289821
62 2 0.654162 0.832915 0.312068
1 1 -0.000738588 0.996678 0.504759
2 1 0.2049 0.102279 0.496355
3 1 -0.000171062 0.334921 0.490028
4 1 0.216643 0.445188 0.492555
5 1 0.985903 0.662153 0.491125
6 1 0.219417 0.783185 0.490973
7 1 0.332054 0.00548475 0.492814
8 1 0.560932 0.104819 0.502019
9 1 0.290557 0.316736 0.487585
10 1 0.329935 0.669324 0.493038
11 1 0.549562 0.778695 0.490299
12 1 0.65764 0.992792 0.489254
13 1 0.889646 0.105807 0.493523
14 1 0.693057 0.307559 0.510961
15 1 0.889867 0.442991 0.502139
16 1 0.673437 0.698407 0.49024
17 1 0.882407 0.785729 0.494526
27 2 0.680874 0.347481 0.370379
28 2 0.337155 0.166606 0.393442
29 2 0.376583 0.223769 0.450256
39 2 0.174995 0.84226 0.370005
40 2 0.843951 0.674301 0.392347
41 2 0.781605 0.634024 0.448735
51 2 0.167167 0.332536 0.371074
52 2 0.826096 0.171526 0.389995
53 2 0.850305 0.160432 0.448011
63 2 0.672266 0.830201 0.370322
64 2 0.335066 0.66361 0.388081
65 2 0.310939 0.696444 0.44341
66 3 0.17988 0.157562 0.556423
67 3 0.183848 0.478067 0.582324
68 3 0.178282 0.842451 0.587311
69 3 0.502339 0.121866 0.558338
70 3 0.535445 0.468369 0.564152
71 3 0.493954 0.786215 0.563509
72 3 0.841046 0.175491 0.586225
73 3 0.871513 0.517201 0.553369
74 3 0.843152 0.838254 0.565395
ITEM: TIMESTEP
200
ITEM: NUMBER OF ATOMS
74
ITEM: BOX BOUNDS xy xz yz pp pp pp
-3.7004999999999999e+00 7.4009999999999998e+00 -3.7004999999999999e+00
0.0000000000000000e+00 6.4094540134086300e+00 0.0000000000000000e+00
0.0000000000000000e+00 4.0329638543820927e+01 0.0000000000000000e+00
ITEM: ATOMS id type xs ys zs
18 2 0 0 0
19 2 0.5 0 0.0583118
20 2 0.666667 0.333333 0.077749
21 2 0.668311 0.33368 0.136155
22 2 0.341445 0.162375 0.155879
30 2 0.5 0.5 0
31 2 1 0.5 0.0583118
32 2 0.166667 0.833333 0.077749
33 2 0.165465 0.824619 0.135295
34 2 0.84024 0.677559 0.156059
42 2 0.5 0 0
43 2 0 0 0.0583118
44 2 0.166667 0.333333 0.077749
45 2 0.16731 0.326513 0.135303
46 2 0.837282 0.165231 0.156966
54 2 1 0.5 0
55 2 0.5 0.5 0.0583118
56 2 0.666667 0.833333 0.077749
57 2 0.670936 0.830253 0.135316
58 2 0.330428 0.660201 0.154936
23 2 0.333623 0.17058 0.213036
24 2 0.00195097 0.489859 0.234957
25 2 0.492146 0.00371634 0.291562
26 2 0.664933 0.340082 0.311314
35 2 0.841374 0.662229 0.213508
36 2 0.494936 0.996768 0.234109
37 2 0.990993 0.488509 0.292062
38 2 0.153672 0.829362 0.311995
47 2 0.82458 0.156796 0.214021
48 2 0.500472 0.504028 0.233035
49 2 0.991805 0.999951 0.29328
50 2 0.159965 0.327582 0.311854
59 2 0.331204 0.664597 0.212515
60 2 0.00762089 0.00767333 0.235318
61 2 0.500127 0.507367 0.29026
62 2 0.654822 0.833022 0.311784
1 1 -0.0068702 0.995928 0.503153
2 1 0.210722 0.113126 0.496067
3 1 -0.00385428 0.336754 0.492147
4 1 0.213687 0.440228 0.493545
5 1 0.986127 0.667754 0.492841
6 1 0.214239 0.784562 0.490007
7 1 0.33085 0.00922146 0.49465
8 1 0.555672 0.103919 0.502668
9 1 0.289597 0.310556 0.489456
10 1 0.322572 0.6715 0.491524
11 1 0.552196 0.782766 0.490408
12 1 0.661489 1.00282 0.489515
13 1 0.885852 0.108256 0.493821
14 1 0.69535 0.308529 0.510288
15 1 0.893768 0.445115 0.502478
16 1 0.6741 0.696947 0.492458
17 1 0.884692 0.78697 0.49573
27 2 0.680954 0.347036 0.369966
28 2 0.333966 0.164608 0.393115
29 2 0.390771 0.227935 0.449902
39 2 0.17432 0.841504 0.369817
40 2 0.84498 0.676891 0.392284
41 2 0.776846 0.620428 0.447867
51 2 0.166101 0.332241 0.370836
52 2 0.826573 0.172146 0.390062
53 2 0.8497 0.157744 0.448151
63 2 0.672694 0.830765 0.369902
64 2 0.33795 0.663716 0.387302
65 2 0.307143 0.701631 0.443498
66 3 0.178349 0.154757 0.555677
67 3 0.181949 0.471271 0.588061
68 3 0.180466 0.843378 0.594258
69 3 0.498765 0.113199 0.560595
70 3 0.536099 0.46977 0.567084
71 3 0.49486 0.787084 0.565709
72 3 0.839332 0.175073 0.593519
73 3 0.879175 0.519348 0.554222
74 3 0.8462 0.832749 0.567719
ITEM: TIMESTEP
225
ITEM: NUMBER OF ATOMS
74
ITEM: BOX BOUNDS xy xz yz pp pp pp
-3.7004999999999999e+00 7.4009999999999998e+00 -3.7004999999999999e+00
0.0000000000000000e+00 6.4094540134086300e+00 0.0000000000000000e+00
0.0000000000000000e+00 4.0329638543820927e+01 0.0000000000000000e+00
ITEM: ATOMS id type xs ys zs
18 2 0 0 0
19 2 0.5 0 0.0583118
20 2 0.666667 0.333333 0.077749
21 2 0.669133 0.333693 0.136697
22 2 0.339082 0.162081 0.155983
30 2 0.5 0.5 0
31 2 1 0.5 0.0583118
32 2 0.166667 0.833333 0.077749
33 2 0.16736 0.826666 0.135267
34 2 0.839834 0.674921 0.156055
42 2 0.5 0 0
43 2 0 0 0.0583118
44 2 0.166667 0.333333 0.077749
45 2 0.168367 0.328437 0.135535
46 2 0.83658 0.163252 0.156866
54 2 1 0.5 0
55 2 0.5 0.5 0.0583118
56 2 0.666667 0.833333 0.077749
57 2 0.670184 0.83001 0.13541
58 2 0.331634 0.66053 0.15523
23 2 0.334299 0.169588 0.213293
24 2 0.00141494 0.491405 0.235065
25 2 0.491493 0.00321743 0.2916
26 2 0.664649 0.339316 0.311401
35 2 0.839359 0.663139 0.213629
36 2 0.49501 0.996261 0.234129
37 2 0.990598 0.490559 0.292021
38 2 0.155144 0.829865 0.311809
47 2 0.82655 0.158829 0.214083
48 2 0.500912 0.502852 0.233481
49 2 0.992195 0.999441 0.292905
50 2 0.160389 0.328634 0.311838
59 2 0.331841 0.664838 0.212907
60 2 0.00508398 0.00442045 0.235039
61 2 0.498825 0.506097 0.290714
62 2 0.656127 0.833594 0.311558
1 1 -0.00725609 0.998581 0.501343
2 1 0.21337 0.112685 0.495892
3 1 -0.00614845 0.334884 0.493776
4 1 0.207564 0.443873 0.494637
5 1 0.990395 0.676841 0.494229
6 1 0.207064 0.786425 0.48874
7 1 0.326772 0.00959866 0.496273
8 1 0.550477 0.106163 0.504182
9 1 0.297097 0.314948 0.4912
10 1 0.322191 0.666175 0.49025
11 1 0.553597 0.782318 0.49004
12 1 0.664494 1.00877 0.489602
13 1 0.882364 0.113809 0.494863
14 1 0.689769 0.305325 0.510214
15 1 0.899578 0.450972 0.503068
16 1 0.679432 0.701838 0.493672
17 1 0.874828 0.778137 0.496094
27 2 0.677782 0.345037 0.369363
28 2 0.330478 0.163108 0.392567
29 2 0.407638 0.233462 0.449543
39 2 0.173725 0.840103 0.369694
40 2 0.847442 0.680435 0.392116
41 2 0.770646 0.605691 0.448156
51 2 0.164806 0.331143 0.370548
52 2 0.828158 0.171736 0.390231
53 2 0.848778 0.15615 0.448244
63 2 0.672482 0.832737 0.369559
64 2 0.340669 0.664558 0.386883
65 2 0.30379 0.707888 0.444006
66 3 0.174063 0.151813 0.554656
67 3 0.18141 0.466093 0.5936
68 3 0.181812 0.843871 0.601221
69 3 0.500673 0.109313 0.561701
70 3 0.534472 0.469851 0.570091
71 3 0.494225 0.787706 0.567649
72 3 0.834733 0.172246 0.600566
73 3 0.885876 0.51614 0.554566
74 3 0.849977 0.830037 0.570246
ITEM: TIMESTEP
250
ITEM: NUMBER OF ATOMS
74
ITEM: BOX BOUNDS xy xz yz pp pp pp
-3.7004999999999999e+00 7.4009999999999998e+00 -3.7004999999999999e+00
0.0000000000000000e+00 6.4094540134086300e+00 0.0000000000000000e+00
0.0000000000000000e+00 4.0329638543820927e+01 0.0000000000000000e+00
ITEM: ATOMS id type xs ys zs
18 2 0 0 0
19 2 0.5 0 0.0583118
20 2 0.666667 0.333333 0.077749
21 2 0.670752 0.333958 0.136989
22 2 0.336196 0.162054 0.156095
30 2 0.5 0.5 0
31 2 1 0.5 0.0583118
32 2 0.166667 0.833333 0.077749
33 2 0.169746 0.829655 0.135235
34 2 0.838613 0.670259 0.156167
42 2 0.5 0 0
43 2 0 0 0.0583118
44 2 0.166667 0.333333 0.077749
45 2 0.169308 0.329933 0.135744
46 2 0.835491 0.161648 0.15668
54 2 1 0.5 0
55 2 0.5 0.5 0.0583118
56 2 0.666667 0.833333 0.077749
57 2 0.668721 0.8305 0.135499
58 2 0.333569 0.661039 0.155611
23 2 0.335021 0.168355 0.213582
24 2 0.00033235 0.493435 0.234952
25 2 0.490653 0.00240898 0.291579
26 2 0.663067 0.337562 0.311609
35 2 0.837348 0.664919 0.213836
36 2 0.494934 0.996028 0.234123
37 2 0.991678 0.494193 0.29189
38 2 0.157543 0.830481 0.311703
47 2 0.829314 0.161107 0.214141
48 2 0.502109 0.501849 0.233837
49 2 0.992639 0.998545 0.292273
50 2 0.16208 0.330623 0.31204
59 2 0.332418 0.664962 0.213306
60 2 0.00150891 -0.000223333 0.23466
61 2 0.496499 0.503663 0.291137
62 2 0.657933 0.834553 0.311419
1 1 0.996147 1.00154 0.49909
2 1 0.210699 0.114817 0.495009
3 1 0.997474 0.334782 0.494592
4 1 0.210054 0.433823 0.495923
5 1 0.987843 0.676829 0.494838
6 1 0.208954 0.790993 0.487549
7 1 0.327504 0.0111612 0.496913
8 1 0.546721 0.104146 0.505611
9 1 0.296097 0.324119 0.492256
10 1 0.323143 0.657374 0.489707
11 1 0.551629 0.783607 0.488953
12 1 0.658161 0.00943788 0.489954
13 1 0.885772 0.114762 0.496428
14 1 0.689976 0.307293 0.510683
15 1 0.893425 0.452872 0.503958
16 1 0.675998 0.700185 0.493697
17 1 0.8792 0.786021 0.495969
27 2 0.672349 0.34224 0.368848
28 2 0.327581 0.162899 0.392154
29 2 0.424501 0.241002 0.449833
39 2 0.173342 0.838248 0.369633
40 2 0.849708 0.683833 0.392042
41 2 0.762166 0.588285 0.449611
51 2 0.163624 0.329641 0.370348
52 2 0.830139 0.17062 0.390509
53 2 0.84682 0.15687 0.448577
63 2 0.672358 0.835782 0.369395
64 2 0.342624 0.665621 0.386944
65 2 0.302176 0.717959 0.444211
66 3 0.167284 0.148871 0.55324
67 3 0.182314 0.462352 0.598841
68 3 0.182733 0.844657 0.607975
69 3 0.506832 0.109959 0.561659
70 3 0.531167 0.468098 0.573116
71 3 0.491716 0.78736 0.569263
72 3 0.827319 0.167093 0.607229
73 3 0.891323 0.508589 0.554824
74 3 0.854527 0.829976 0.572953
ITEM: TIMESTEP
275
ITEM: NUMBER OF ATOMS
74
ITEM: BOX BOUNDS xy xz yz pp pp pp
-3.7004999999999999e+00 7.4009999999999998e+00 -3.7004999999999999e+00
0.0000000000000000e+00 6.4094540134086300e+00 0.0000000000000000e+00
0.0000000000000000e+00 4.0329638543820927e+01 0.0000000000000000e+00
ITEM: ATOMS id type xs ys zs
18 2 0 0 0
19 2 0.5 0 0.0583118
20 2 0.666667 0.333333 0.077749
21 2 0.672278 0.333913 0.136995
22 2 0.33368 0.162513 0.15622
30 2 0.5 0.5 0
31 2 1 0.5 0.0583118
32 2 0.166667 0.833333 0.077749
33 2 0.171888 0.832598 0.135238
34 2 0.837179 0.665142 0.156336
42 2 0.5 0 0
43 2 0 0 0.0583118
44 2 0.166667 0.333333 0.077749
45 2 0.169797 0.330858 0.135887
46 2 0.834499 0.160802 0.15648
54 2 1 0.5 0
55 2 0.5 0.5 0.0583118
56 2 0.666667 0.833333 0.077749
57 2 0.667175 0.831115 0.135573
58 2 0.335671 0.661898 0.156041
23 2 0.335322 0.166921 0.21384
24 2 -0.000921436 0.495742 0.23467
25 2 0.4903 0.00151666 0.291505
26 2 0.660868 0.335317 0.311866
35 2 0.835455 0.66668 0.214033
36 2 0.495208 0.996206 0.234091
37 2 0.993648 0.498206 0.291731
38 2 0.160101 0.831178 0.311681
47 2 0.832219 0.163284 0.214167
48 2 0.503206 0.500858 0.23411
49 2 0.993211 0.997847 0.29155
50 2 0.163842 0.332685 0.312353
59 2 0.332794 0.664727 0.213672
60 2 -0.00202148 -0.00471735 0.234237
61 2 0.493929 0.500854 0.291524
62 2 0.66005 0.83566 0.311404
1 1 0.998677 1.00392 0.497572
2 1 0.217528 0.117762 0.493382
3 1 1.00118 0.341291 0.495249
4 1 0.213536 0.433044 0.497276
5 1 0.985466 0.670849 0.495627
6 1 0.212333 0.792481 0.487257
7 1 0.328938 0.0125682 0.496558
8 1 0.546313 0.102572 0.50688
9 1 0.300027 0.331472 0.492607
10 1 0.324064 0.645963 0.489873
11 1 0.549683 0.780819 0.487663
12 1 0.650995 0.00533082 0.490615
13 1 0.88234 0.114109 0.497353
14 1 0.693385 0.310331 0.511997
15 1 0.88933 0.447993 0.505623
16 1 0.671092 0.705506 0.492908
17 1 0.878967 0.788551 0.495798
27 2 0.666226 0.33913 0.368364