ITEM: TIMESTEP
0
ITEM: NUMBER OF ATOMS
75
ITEM: BOX BOUNDS xy xz yz pp pp pp
-3.7004999999999999e+00 7.4009999999999998e+00 -3.7004999999999999e+00
0.0000000000000000e+00 6.4094540134086300e+00 0.0000000000000000e+00
0.0000000000000000e+00 4.0329638543820927e+01 0.0000000000000000e+00
ITEM: ATOMS id type xs ys zs
19 2 0 0 0
20 2 0.5 0 0.0583118
21 2 0.666667 0.333333 0.077749
22 2 0.666667 0.333333 0.135781
23 2 0.333333 0.166667 0.155801
31 2 0.5 0.5 0
32 2 1 0.5 0.0583118
33 2 0.166667 0.833333 0.077749
34 2 0.166667 0.833333 0.135781
35 2 0.833333 0.666667 0.155801
43 2 0.5 0 0
44 2 0 0 0.0583118
45 2 0.166667 0.333333 0.077749
46 2 0.166667 0.333333 0.135781
47 2 0.833333 0.166667 0.155801
55 2 1 0.5 0
56 2 0.5 0.5 0.0583118
57 2 0.666667 0.833333 0.077749
58 2 0.666667 0.833333 0.135781
59 2 0.333333 0.666667 0.155801
24 2 0.333333 0.166667 0.213538
25 2 1 0.5 0.233518
26 2 0.500024 4.8563e-05 0.291213
27 2 0.666667 0.333333 0.311257
36 2 0.833333 0.666667 0.213538
37 2 0.5 9.57301e-10 0.233518
38 2 0.999951 0.499976 0.291213
39 2 0.166667 0.833333 0.311228
48 2 0.833333 0.166667 0.213538
49 2 0.5 0.5 0.233518
50 2 7.5132e-10 1 0.291201
51 2 0.166667 0.333334 0.311228
60 2 0.333333 0.666667 0.213538
61 2 5.73357e-12 1 0.233518
62 2 0.500024 0.499976 0.291213
63 2 0.666666 0.833333 0.311228
1 1 0.999999 1.3739e-06 0.497346
2 1 0.222544 0.111489 0.496267
3 1 0.995758 0.334784 0.496128
4 1 0.223167 0.4467 0.496222
5 1 0.995762 0.660981 0.496128
6 1 0.223166 0.776834 0.496222
7 1 0.339019 0.00423847 0.496128
8 1 0.551875 0.104863 0.497823
9 1 0.339019 0.334782 0.496128
10 1 0.551873 0.448127 0.497824
11 1 0.333333 0.666667 0.496468
12 1 0.5533 0.776833 0.496222
13 1 0.665216 0.00424155 0.496128
14 1 0.88851 0.11149 0.496267
15 1 0.666665 0.333335 0.496953
16 1 0.895137 0.448125 0.497823
17 1 0.665218 0.660981 0.496128
18 1 0.888511 0.777456 0.496267
28 2 0.666667 0.333333 0.369265
29 2 0.333218 0.166609 0.388965
30 2 0.330519 0.16526 0.446581
40 2 0.166723 0.833277 0.369328
41 2 0.833391 0.666782 0.388965
42 2 0.83474 0.669481 0.446581
52 2 0.166723 0.333447 0.369328
53 2 0.833391 0.166609 0.388965
54 2 0.834741 0.165259 0.446581
64 2 0.666553 0.833277 0.369328
65 2 0.333333 0.666667 0.389109
66 2 0.333333 0.666667 0.447742
67 3 0.166543 0.16625 0.554013
68 3 0.166763 0.499929 0.554088
69 3 0.166777 0.833223 0.554126
70 3 0.500456 0.166297 0.553779
71 3 0.50045 0.49955 0.553794
72 3 0.500071 0.833237 0.554088
73 3 0.833417 0.166583 0.554064
74 3 0.833703 0.499544 0.553779
75 3 0.83375 0.833457 0.554013
ITEM: TIMESTEP
25
ITEM: NUMBER OF ATOMS
75
ITEM: BOX BOUNDS xy xz yz pp pp pp
-3.7004999999999999e+00 7.4009999999999998e+00 -3.7004999999999999e+00
0.0000000000000000e+00 6.4094540134086300e+00 0.0000000000000000e+00
0.0000000000000000e+00 4.0329638543820927e+01 0.0000000000000000e+00
ITEM: ATOMS id type xs ys zs
19 2 0 0 0
20 2 0.5 0 0.0583118
21 2 0.666667 0.333333 0.077749
22 2 0.667385 0.333225 0.135447
23 2 0.335633 0.169292 0.155815
31 2 0.5 0.5 0
32 2 1 0.5 0.0583118
33 2 0.166667 0.833333 0.077749
34 2 0.164945 0.829132 0.136154
35 2 0.837991 0.671795 0.156493
43 2 0.5 0 0
44 2 0 0 0.0583118
45 2 0.166667 0.333333 0.077749
46 2 0.165521 0.33471 0.135485
47 2 0.833504 0.164178 0.156044
55 2 1 0.5 0
56 2 0.5 0.5 0.0583118
57 2 0.666667 0.833333 0.077749
58 2 0.66887 0.830966 0.135361
59 2 0.333378 0.667393 0.155471
24 2 0.331799 0.163738 0.213125
25 2 0.995491 0.500233 0.233712
26 2 0.496338 -0.000310057 0.291577
27 2 0.661221 0.33209 0.311008
36 2 0.829813 0.666292 0.213556
37 2 0.502551 0.00226299 0.233603
38 2 1.0005 0.498562 0.291607
39 2 0.169192 0.835134 0.311435
48 2 0.839103 0.170043 0.212517
49 2 0.49645 0.497199 0.233503
50 2 0.00530896 1.00211 0.292041
51 2 0.166834 0.33074 0.311494
60 2 0.331179 0.66141 0.213823
61 2 -0.00331238 0.998295 0.233026
62 2 0.497614 0.500214 0.291621
63 2 0.664983 0.834631 0.311603
1 1 0.996065 -0.00161631 0.497676
2 1 0.224816 0.112074 0.496332
3 1 0.997297 0.335054 0.495069
4 1 0.223224 0.444773 0.494682
5 1 1.00249 0.668708 0.496829
6 1 0.224109 0.779473 0.49564
7 1 0.336093 -0.00167851 0.495844
8 1 0.555023 0.112491 0.497273
9 1 0.329027 0.329938 0.495912
10 1 0.555536 0.444117 0.498287
11 1 0.331672 0.661743 0.495692
12 1 0.555227 0.772002 0.495592
13 1 0.660258 -0.00455188 0.496894
14 1 0.884419 0.10977 0.496218
15 1 0.663216 0.325339 0.498143
16 1 0.884587 0.448018 0.497397
17 1 0.672489 0.66682 0.496196
18 1 0.887822 0.774184 0.49485
28 2 0.671385 0.336523 0.36939
29 2 0.336444 0.170074 0.389377
30 2 0.329661 0.167946 0.446388
40 2 0.173893 0.836231 0.369233
41 2 0.828819 0.666405 0.388894
42 2 0.8311 0.669397 0.446514
52 2 0.167214 0.331552 0.369488
53 2 0.836059 0.167163 0.388156
54 2 0.837072 0.172899 0.446456
64 2 0.66573 0.833872 0.369472
65 2 0.33211 0.669487 0.389385
66 2 0.332133 0.665933 0.447861
67 3 0.172596 0.16915 0.555085
68 3 0.166456 0.498431 0.555765
69 3 0.169881 0.826833 0.554284
70 3 0.504586 0.155998 0.553104
71 3 0.497023 0.487564 0.552928
72 3 0.498335 0.830324 0.554961
73 3 0.845529 0.170572 0.554267
74 3 0.834023 0.510875 0.553968
75 3 0.836601 0.834886 0.556219
ITEM: TIMESTEP
50
ITEM: NUMBER OF ATOMS
75
ITEM: BOX BOUNDS xy xz yz pp pp pp
-3.7004999999999999e+00 7.4009999999999998e+00 -3.7004999999999999e+00
0.0000000000000000e+00 6.4094540134086300e+00 0.0000000000000000e+00
0.0000000000000000e+00 4.0329638543820927e+01 0.0000000000000000e+00
ITEM: ATOMS id type xs ys zs
19 2 0 0 0
20 2 0.5 0 0.0583118
21 2 0.666667 0.333333 0.077749
22 2 0.668334 0.333447 0.135135
23 2 0.337551 0.171248 0.155822
31 2 0.5 0.5 0
32 2 1 0.5 0.0583118
33 2 0.166667 0.833333 0.077749
34 2 0.164383 0.826715 0.136339
35 2 0.841353 0.675063 0.157117
43 2 0.5 0 0
44 2 0 0 0.0583118
45 2 0.166667 0.333333 0.077749
46 2 0.164832 0.335771 0.135147
47 2 0.833377 0.162094 0.156155
55 2 1 0.5 0
56 2 0.5 0.5 0.0583118
57 2 0.666667 0.833333 0.077749
58 2 0.670533 0.829031 0.134931
59 2 0.333856 0.667868 0.15535
24 2 0.330409 0.160899 0.21273
25 2 0.991947 0.500559 0.233985
26 2 0.493807 -0.000398471 0.29167
27 2 0.657389 0.331579 0.310908
36 2 0.826407 0.665817 0.213594
37 2 0.504791 0.00360105 0.233681
38 2 1.00031 0.497165 0.291831
39 2 0.170697 0.83571 0.311717
48 2 0.843367 0.172843 0.21171
49 2 0.49304 0.494303 0.233602
50 2 0.00865916 1.00312 0.292508
51 2 0.166795 0.328889 0.311816
60 2 0.329095 0.657661 0.213998
61 2 -0.00579331 0.996963 0.232799
62 2 0.495785 0.500979 0.291795
63 2 0.664076 0.836008 0.311957
1 1 0.994262 -0.00350162 0.498192
2 1 0.219278 0.107041 0.495929
3 1 0.993293 0.335079 0.493549
4 1 0.218094 0.438575 0.492537
5 1 1.00034 0.669507 0.496849
6 1 0.224611 0.777043 0.494579
7 1 0.335216 0.000844934 0.494931
8 1 0.553041 0.109081 0.49715
9 1 0.32979 0.331283 0.495138
10 1 0.554785 0.439203 0.499476
11 1 0.333051 0.661052 0.49534
12 1 0.55585 0.767526 0.494548
13 1 0.65996 -0.00711365 0.497113
14 1 0.883005 0.108345 0.495712
15 1 0.665014 0.330432 0.499708
16 1 0.881618 0.446299 0.498293
17 1 0.672497 0.664841 0.495527
18 1 0.89263 0.779245 0.493336
28 2 0.675272 0.339332 0.369484
29 2 0.34 0.173033 0.389815
30 2 0.328465 0.170149 0.44657
40 2 0.178795 0.838993 0.369238
41 2 0.826146 0.666795 0.388905
42 2 0.827697 0.67035 0.446439
52 2 0.168187 0.330529 0.369648
53 2 0.838373 0.167655 0.387613
54 2 0.839273 0.179822 0.446421
64 2 0.664989 0.834394 0.369594
65 2 0.331188 0.671566 0.389831
66 2 0.330997 0.665141 0.447819
67 3 0.178104 0.16957 0.557095
68 3 0.166758 0.496899 0.558661
69 3 0.172827 0.821472 0.555627
70 3 0.510392 0.146584 0.552785
71 3 0.495029 0.476477 0.552497
72 3 0.498216 0.826186 0.557032
73 3 0.856627 0.174217 0.555532
74 3 0.834834 0.518464 0.554429
75 3 0.839812 0.837028 0.559427
ITEM: TIMESTEP
75
ITEM: NUMBER OF ATOMS
75
ITEM: BOX BOUNDS xy xz yz pp pp pp
-3.7004999999999999e+00 7.4009999999999998e+00 -3.7004999999999999e+00
0.0000000000000000e+00 6.4094540134086300e+00 0.0000000000000000e+00
0.0000000000000000e+00 4.0329638543820927e+01 0.0000000000000000e+00
ITEM: ATOMS id type xs ys zs
19 2 0 0 0
20 2 0.5 0 0.0583118
21 2 0.666667 0.333333 0.077749
22 2 0.669574 0.334123 0.134947
23 2 0.338823 0.172118 0.155745
31 2 0.5 0.5 0
32 2 1 0.5 0.0583118
33 2 0.166667 0.833333 0.077749
34 2 0.16564 0.827121 0.136299
35 2 0.842666 0.675406 0.157531
43 2 0.5 0 0
44 2 0 0 0.0583118
45 2 0.166667 0.333333 0.077749
46 2 0.164911 0.336279 0.134837
47 2 0.832828 0.160739 0.15597
55 2 1 0.5 0
56 2 0.5 0.5 0.0583118
57 2 0.666667 0.833333 0.077749
58 2 0.671301 0.827789 0.134591
59 2 0.334982 0.667935 0.15549
24 2 0.329275 0.158256 0.212447
25 2 0.989952 0.500989 0.234306
26 2 0.493149 -3.93946e-05 0.291428
27 2 0.656178 0.332219 0.310981
36 2 0.823244 0.665157 0.213732
37 2 0.506436 0.0034858 0.233679
38 2 0.999003 0.495867 0.291874
39 2 0.170522 0.834358 0.312047
48 2 0.845256 0.174707 0.211341
49 2 0.48989 0.49132 0.233802
50 2 0.00890262 1.00238 0.292471
51 2 0.166431 0.328284 0.312147
60 2 0.327135 0.656291 0.214053
61 2 -0.00691751 0.996271 0.232929
62 2 0.494898 0.50251 0.291687
63 2 0.664345 0.837439 0.312194
1 1 0.995532 -0.00255052 0.498649
2 1 0.213456 0.104204 0.49509
3 1 0.983894 0.329376 0.491952
4 1 0.210408 0.432527 0.49105
5 1 0.993928 0.664698 0.496321
6 1 0.222099 0.777069 0.494259
7 1 0.333728 0.00489342 0.493453
8 1 0.548419 0.0999412 0.497794
9 1 0.333429 0.32753 0.494022
10 1 0.549471 0.441949 0.500812
11 1 0.333979 0.659131 0.496114
12 1 0.5594 0.769912 0.494378
13 1 0.66317 -0.00483448 0.496892
14 1 0.883894 0.108618 0.494865
15 1 0.666166 0.33338 0.501423
16 1 0.891966 0.449678 0.500069
17 1 0.670732 0.657609 0.494251
18 1 0.894593 0.784189 0.492041
28 2 0.677796 0.341482 0.369519
29 2 0.343948 0.175092 0.390266
30 2 0.327166 0.17197 0.447275
40 2 0.179921 0.84162 0.369316
41 2 0.82654 0.66842 0.389012
42 2 0.824115 0.671129 0.446503
52 2 0.169762 0.330537 0.369723
53 2 0.840068 0.168034 0.387479
54 2 0.841006 0.186008 0.446445
64 2 0.66485 0.83502 0.369588
65 2 0.330734 0.672486 0.390093
66 2 0.33019 0.664937 0.446108
67 3 0.18307 0.166769 0.560046
68 3 0.167928 0.49553 0.562766
69 3 0.175431 0.818083 0.557987
70 3 0.517668 0.138914 0.552746
71 3 0.494382 0.467901 0.552685
72 3 0.500531 0.82028 0.560224
73 3 0.865543 0.177261 0.55775
74 3 0.836112 0.521163 0.555152
75 3 0.842554 0.839701 0.56373
ITEM: TIMESTEP
100
ITEM: NUMBER OF ATOMS
75
ITEM: BOX BOUNDS xy xz yz pp pp pp
-3.7004999999999999e+00 7.4009999999999998e+00 -3.7004999999999999e+00
0.0000000000000000e+00 6.4094540134086300e+00 0.0000000000000000e+00
0.0000000000000000e+00 4.0329638543820927e+01 0.0000000000000000e+00
ITEM: ATOMS id type xs ys zs
19 2 0 0 0
20 2 0.5 0 0.0583118
21 2 0.666667 0.333333 0.077749
22 2 0.671006 0.335187 0.134938
23 2 0.339295 0.171799 0.155555
31 2 0.5 0.5 0
32 2 1 0.5 0.0583118
33 2 0.166667 0.833333 0.077749
34 2 0.168579 0.830236 0.136069
35 2 0.84197 0.672885 0.15764
43 2 0.5 0 0
44 2 0 0 0.0583118
45 2 0.166667 0.333333 0.077749
46 2 0.165785 0.336128 0.134636
47 2 0.832043 0.1603 0.155474
55 2 1 0.5 0
56 2 0.5 0.5 0.0583118
57 2 0.666667 0.833333 0.077749
58 2 0.671156 0.827305 0.134436
59 2 0.336574 0.667591 0.155845
24 2 0.328477 0.155957 0.212345
25 2 0.989629 0.501493 0.234609
26 2 0.494335 0.000795236 0.290911
27 2 0.657538 0.333882 0.311193
36 2 0.820559 0.66432 0.213997
37 2 0.50723 0.00188278 0.233553
38 2 0.996687 0.494813 0.29177
39 2 0.168753 0.831354 0.31233
48 2 0.844594 0.175391 0.211479
49 2 0.487101 0.488492 0.234034
50 2 0.00615862 0.999991 0.291949
51 2 0.165763 0.328912 0.312371
60 2 0.325481 0.657374 0.214015
61 2 -0.00662755 0.996294 0.233366
62 2 0.494998 0.504542 0.29134
63 2 0.665664 0.83881 0.312212
1 1 0.995734 0.000932571 0.499067
2 1 0.216466 0.107661 0.494305
3 1 0.983881 0.325766 0.490176
4 1 0.210055 0.437153 0.489119
5 1 0.997901 0.666671 0.494821
6 1 0.219532 0.774961 0.493112
7 1 0.32637 -0.00418628 0.49154
8 1 0.553787 0.106995 0.499479
9 1 0.328647 0.323776 0.492581
10 1 0.552671 0.442832 0.501983
11 1 0.330381 0.657451 0.495909
12 1 0.557512 0.772992 0.493564
13 1 0.665269 -0.00610899 0.495711
14 1 0.882286 0.109205 0.493854
15 1 0.665737 0.331294 0.503564
16 1 0.888985 0.445095 0.501821
17 1 0.669013 0.658096 0.492161
18 1 0.888077 0.776945 0.491317
28 2 0.679033 0.34292 0.369479
29 2 0.348147 0.17607 0.390659
30 2 0.326114 0.173671 0.447818
40 2 0.177482 0.843218 0.369646
41 2 0.830134 0.671184 0.389256
42 2 0.819784 0.670394 0.44694
52 2 0.172156 0.332491 0.369867
53 2 0.84091 0.168332 0.387832
54 2 0.842232 0.19216 0.446653
64 2 0.664758 0.835416 0.369663
65 2 0.330683 0.672283 0.390411
66 2 0.329097 0.66427 0.44582
67 3 0.187733 0.161067 0.563842
68 3 0.170214 0.494359 0.567863
69 3 0.177731 0.817204 0.561129
70 3 0.526422 0.134535 0.552807
71 3 0.494867 0.462654 0.553541
72 3 0.505217 0.812713 0.564344
73 3 0.871641 0.179424 0.560761
74 3 0.837331 0.518537 0.555849
75 3 0.844172 0.841887 0.568993
ITEM: TIMESTEP
125
ITEM: NUMBER OF ATOMS
75
ITEM: BOX BOUNDS xy xz yz pp pp pp
-3.7004999999999999e+00 7.4009999999999998e+00 -3.7004999999999999e+00
0.0000000000000000e+00 6.4094540134086300e+00 0.0000000000000000e+00
0.0000000000000000e+00 4.0329638543820927e+01 0.0000000000000000e+00
ITEM: ATOMS id type xs ys zs
19 2 0 0 0
20 2 0.5 0 0.0583118
21 2 0.666667 0.333333 0.077749
22 2 0.672395 0.336383 0.135091
23 2 0.338967 0.170546 0.155294
31 2 0.5 0.5 0
32 2 1 0.5 0.0583118
33 2 0.166667 0.833333 0.077749
34 2 0.172295 0.834801 0.135744
35 2 0.840042 0.66865 0.157445
43 2 0.5 0 0
44 2 0 0 0.0583118
45 2 0.166667 0.333333 0.077749
46 2 0.167175 0.335388 0.134608
47 2 0.831484 0.160785 0.15483
55 2 1 0.5 0
56 2 0.5 0.5 0.0583118
57 2 0.666667 0.833333 0.077749
58 2 0.670403 0.827465 0.134523
59 2 0.338123 0.66698 0.156287
24 2 0.328029 0.154186 0.212434
25 2 0.990618 0.501994 0.234811
26 2 0.496622 0.00186803 0.290333
27 2 0.66037 0.335926 0.31147
36 2 0.818669 0.663428 0.214338
37 2 0.507025 -0.000728963 0.233309
38 2 0.994031 0.494159 0.291626
39 2 0.166201 0.827882 0.312493
48 2 0.841861 0.174776 0.212
49 2 0.484797 0.486252 0.234205
50 2 0.00173262 0.996839 0.291198
51 2 0.164927 0.330243 0.31243
60 2 0.324404 0.660182 0.213929
61 2 -0.00534961 0.996868 0.233933
62 2 0.495735 0.50645 0.290935
63 2 0.667448 0.839963 0.312026
1 1 0.992151 0.000852446 0.498713
2 1 0.212829 0.104168 0.494366
3 1 0.986341 0.332025 0.48973
4 1 0.210695 0.43714 0.488841
5 1 0.995366 0.65897 0.493203
6 1 0.213256 0.772897 0.493225
7 1 0.329682 -0.00715298 0.490894
8 1 0.557106 0.110951 0.501755
9 1 0.331402 0.333254 0.492353
10 1 0.557367 0.443826 0.502778
11 1 0.324828 0.658602 0.496227
12 1 0.560302 0.775766 0.494097
13 1 0.664535 -0.0014061 0.494142
14 1 0.883081 0.104976 0.492896
15 1 0.666717 0.332591 0.505886
16 1 0.884409 0.444384 0.503184
17 1 0.661216 0.654594 0.49062
18 1 0.885685 0.775203 0.49177
28 2 0.679527 0.343727 0.369362
29 2 0.351949 0.175968 0.390784
30 2 0.325461 0.174412 0.447258
40 2 0.172343 0.843926 0.369899
41 2 0.836052 0.674736 0.389618
42 2 0.816094 0.668048 0.447576
52 2 0.174344 0.334946 0.369789
53 2 0.840941 0.168371 0.388567
54 2 0.841197 0.195214 0.446574
64 2 0.665676 0.83618 0.369631
65 2 0.330954 0.671459 0.3902
66 2 0.32893 0.664729 0.444253
67 3 0.1925 0.153809 0.568205
68 3 0.173517 0.49332 0.573525
69 3 0.179886 0.818666 0.564765
70 3 0.534804 0.132034 0.552964
71 3 0.496584 0.460747 0.554344
72 3 0.51132 0.804529 0.569042
73 3 0.875146 0.180527 0.564289
74 3 0.839465 0.511977 0.555953
75 3 0.844597 0.842197 0.574796
ITEM: TIMESTEP
150
ITEM: NUMBER OF ATOMS
75
ITEM: BOX BOUNDS xy xz yz pp pp pp
-3.7004999999999999e+00 7.4009999999999998e+00 -3.7004999999999999e+00
0.0000000000000000e+00 6.4094540134086300e+00 0.0000000000000000e+00
0.0000000000000000e+00 4.0329638543820927e+01 0.0000000000000000e+00
ITEM: ATOMS id type xs ys zs
19 2 0 0 0
20 2 0.5 0 0.0583118
21 2 0.666667 0.333333 0.077749
22 2 0.673437 0.337323 0.135326
23 2 0.338051 0.168867 0.155056
31 2 0.5 0.5 0
32 2 1 0.5 0.0583118
33 2 0.166667 0.833333 0.077749
34 2 0.175645 0.839089 0.135417
35 2 0.837937 0.664315 0.157045
43 2 0.5 0 0
44 2 0 0 0.0583118
45 2 0.166667 0.333333 0.077749
46 2 0.168692 0.334276 0.134761
47 2 0.831627 0.162037 0.154275
55 2 1 0.5 0
56 2 0.5 0.5 0.0583118
57 2 0.666667 0.833333 0.077749
58 2 0.669463 0.828041 0.134833
59 2 0.339122 0.666289 0.156672
24 2 0.327859 0.153102 0.212659
25 2 0.992239 0.502357 0.234849
26 2 0.499129 0.00291976 0.289886
27 2 0.66325 0.337625 0.311711
36 2 0.817794 0.662613 0.214653
37 2 0.505844 0.996405 0.233001
38 2 0.991808 0.493982 0.291499
39 2 0.163799 0.825232 0.312459
48 2 0.837942 0.172956 0.212673
49 2 0.483082 0.484962 0.234241
50 2 0.997268 0.994012 0.290497
51 2 0.164064 0.331637 0.312271
60 2 0.324041 0.663543 0.213828
61 2 0.996264 0.997683 0.234406
62 2 0.496649 0.507605 0.290633
63 2 0.668974 0.84074 0.311691
1 1 0.991158 0.997787 0.497894
2 1 0.213753 0.102895 0.494074
3 1 0.992696 0.335711 0.490091
4 1 0.216877 0.442976 0.488546
5 1 0.990327 0.654451 0.491611
6 1 0.211766 0.770474 0.492994
7 1 0.334589 0.998797 0.490449
8 1 0.552331 0.106532 0.502838
9 1 0.338981 0.3421 0.49237
10 1 0.55233 0.443829 0.502623
11 1 0.32224 0.660617 0.495639
12 1 0.555456 0.775007 0.494565
13 1 0.664554 0.00182954 0.492188
14 1 0.883629 0.106446 0.491684
15 1 0.660461 0.334972 0.508197
16 1 0.886781 0.445877 0.503821
17 1 0.651272 0.649491 0.490339
18 1 0.884221 0.774384 0.493215
28 2 0.679401 0.343727 0.36928
29 2 0.354659 0.175122 0.390862
30 2 0.32547 0.17552 0.447488
40 2 0.167334 0.844006 0.370256
41 2 0.842583 0.678393 0.390036
42 2 0.812771 0.664281 0.447711
52 2 0.176471 0.337568 0.369831
53 2 0.840486 0.168073 0.389531
54 2 0.838848 0.197818 0.446811
64 2 0.666784 0.837099 0.369642
65 2 0.33148 0.670541 0.389607
66 2 0.328577 0.664435 0.443767
67 3 0.198008 0.146811 0.572909
68 3 0.177563 0.492318 0.579512
69 3 0.182052 0.821328 0.568604
70 3 0.540962 0.129928 0.553953
71 3 0.498889 0.46148 0.554855
72 3 0.517649 0.796975 0.573981
73 3 0.876869 0.180278 0.568093
74 3 0.842778 0.504521 0.555836
75 3 0.844409 0.839587 0.580875
ITEM: TIMESTEP
175
ITEM: NUMBER OF ATOMS
75
ITEM: BOX BOUNDS xy xz yz pp pp pp
-3.7004999999999999e+00 7.4009999999999998e+00 -3.7004999999999999e+00
0.0000000000000000e+00 6.4094540134086300e+00 0.0000000000000000e+00
0.0000000000000000e+00 4.0329638543820927e+01 0.0000000000000000e+00
ITEM: ATOMS id type xs ys zs
19 2 0 0 0
20 2 0.5 0 0.0583118
21 2 0.666667 0.333333 0.077749
22 2 0.673825 0.337583 0.13554
23 2 0.336909 0.167314 0.15494
31 2 0.5 0.5 0
32 2 1 0.5 0.0583118
33 2 0.166667 0.833333 0.077749
34 2 0.17767 0.841571 0.135144
35 2 0.836552 0.661358 0.15658
43 2 0.5 0 0
44 2 0 0 0.0583118
45 2 0.166667 0.333333 0.077749
46 2 0.170002 0.333089 0.135051
47 2 0.832735 0.163786 0.15401
55 2 1 0.5 0
56 2 0.5 0.5 0.0583118
57 2 0.666667 0.833333 0.077749
58 2 0.668689 0.82881 0.135285
59 2 0.339257 0.665663 0.156882
24 2 0.327853 0.152879 0.212933
25 2 0.993739 0.502355 0.234703
26 2 0.501102 0.00372882 0.289703
27 2 0.665051 0.338443 0.311875
36 2 0.817995 0.661947 0.214832
37 2 0.503846 0.994087 0.232718
38 2 0.990675 0.494313 0.291428
39 2 0.162231 0.824329 0.312239
48 2 0.833858 0.170265 0.213273
49 2 0.482122 0.48484 0.23412
50 2 0.99415 0.992424 0.290085
51 2 0.163303 0.332623 0.311952
60 2 0.324315 0.666227 0.213715
61 2 0.997602 0.998411 0.234606
62 2 0.497288 0.507552 0.290549
63 2 0.669632 0.840982 0.31132
1 1 0.991722 0.995713 0.497086
2 1 0.217926 0.106587 0.493819
3 1 0.994839 0.338424 0.491692
4 1 0.224575 0.453222 0.488547
5 1 0.984512 0.649469 0.491058
6 1 0.212901 0.77299 0.492531
7 1 0.339067 1.00382 0.490781
8 1 0.545101 0.101166 0.502494
9 1 0.337736 0.339508 0.492472
10 1 0.544224 0.446122 0.502369
11 1 0.327088 0.664467 0.494637
12 1 0.545621 0.774918 0.495006
13 1 0.660342 0.00156016 0.490596
14 1 0.886112 0.110788 0.490606
15 1 0.662358 0.333436 0.509726
16 1 0.889362 0.449897 0.503874
17 1 0.649914 0.655118 0.491382
18 1 0.879577 0.770762 0.495028
28 2 0.679249 0.343165 0.369238
29 2 0.355873 0.173996 0.390829
30 2 0.326525 0.176973 0.448086
40 2 0.164457 0.843953 0.370519
41 2 0.847864 0.681354 0.39042
42 2 0.809105 0.65846 0.447485
52 2 0.177997 0.339362 0.3699
53 2 0.839959 0.167421 0.390504
54 2 0.83477 0.19925 0.447091
64 2 0.668181 0.838221 0.369631
65 2 0.332248 0.669962 0.388636
66 2 0.327969 0.663897 0.443832
67 3 0.204743 0.14188 0.577798
68 3 0.181933 0.491183 0.585768
69 3 0.184196 0.823457 0.572409
70 3 0.544 0.12606 0.555456
71 3 0.50066 0.464058 0.555298
72 3 0.523152 0.790959 0.578935
73 3 0.87766 0.178467 0.571941
74 3 0.849198 0.498224 0.555231
75 3 0.844463 0.833611 0.587161
ITEM: TIMESTEP
200
ITEM: NUMBER OF ATOMS
75
ITEM: BOX BOUNDS xy xz yz pp pp pp
-3.7004999999999999e+00 7.4009999999999998e+00 -3.7004999999999999e+00
0.0000000000000000e+00 6.4094540134086300e+00 0.0000000000000000e+00
0.0000000000000000e+00 4.0329638543820927e+01 0.0000000000000000e+00
ITEM: ATOMS id type xs ys zs
19 2 0 0 0
20 2 0.5 0 0.0583118
21 2 0.666667 0.333333 0.077749
22 2 0.673366 0.336885 0.135643
23 2 0.335947 0.166283 0.155014
31 2 0.5 0.5 0
32 2 1 0.5 0.0583118
33 2 0.166667 0.833333 0.077749
34 2 0.177781 0.84134 0.134955
35 2 0.836389 0.660725 0.156188
43 2 0.5 0 0
44 2 0 0 0.0583118
45 2 0.166667 0.333333 0.077749
46 2 0.170864 0.332144 0.135386
47 2 0.834698 0.165639 0.154147
55 2 1 0.5 0
56 2 0.5 0.5 0.0583118
57 2 0.666667 0.833333 0.077749
58 2 0.668338 0.829613 0.135759
59 2 0.33845 0.665191 0.156849
24 2 0.327903 0.153693 0.213162
25 2 0.994474 0.501726 0.234402
26 2 0.501976 0.00412403 0.289829
27 2 0.665235 0.338148 0.311953
36 2 0.819161 0.661462 0.214786
37 2 0.501343 0.993003 0.232573
38 2 0.990982 0.495148 0.291415
39 2 0.161871 0.825552 0.311903
48 2 0.830633 0.16731 0.213622
49 2 0.482184 0.485962 0.233885
50 2 0.993235 0.992619 0.290077
51 2 0.162774 0.332959 0.311592
60 2 0.324968 0.667208 0.213579
61 2 0.998172 0.998731 0.234452
62 2 0.497344 0.506148 0.290705
63 2 0.669082 0.840532 0.31103
1 1 0.989919 0.993995 0.496434
2 1 0.215162 0.108718 0.494504
3 1 0.997603 0.339376 0.493831
4 1 0.225329 0.454682 0.48967
5 1 0.984655 0.657508 0.490888
6 1 0.214031 0.778836 0.492491
7 1 0.335075 1.00025 0.492244
8 1 0.548558 0.108112 0.5022
9 1 0.329363 0.333933 0.493273
10 1 0.548131 0.44675 0.503268
11 1 0.330456 0.672268 0.494156
12 1 0.546329 0.780283 0.495787
13 1 0.656291 0.00141825 0.489837
14 1 0.889668 0.108273 0.490336
15 1 0.659873 0.330225 0.509777
16 1 0.881545 0.44456 0.50375
17 1 0.65607 0.664832 0.493449
18 1 0.875516 0.771495 0.496213
28 2 0.679746 0.342768 0.369239
29 2 0.355481 0.173074 0.390542
30 2 0.32923 0.178383 0.447753
40 2 0.164503 0.843961 0.370452
41 2 0.850361 0.682905 0.390832
42 2 0.805274 0.651592 0.447649
52 2 0.178306 0.339452 0.36977
53 2 0.83978 0.166417 0.391243
54 2 0.828866 0.201216 0.44747
64 2 0.670243 0.839334 0.369557
65 2 0.333308 0.67003 0.387389
66 2 0.327464 0.663812 0.443214
67 3 0.212843 0.140563 0.582693
68 3 0.185953 0.489685 0.592188
69 3 0.186067 0.823341 0.575925
70 3 0.544777 0.121428 0.556608
71 3 0.501858 0.467325 0.555452
72 3 0.527093 0.78711 0.58368
73 3 0.878164 0.175027 0.575605
74 3 0.857437 0.494155 0.554646
75 3 0.845464 0.82433 0.593545
ITEM: TIMESTEP
225
ITEM: NUMBER OF ATOMS
75
ITEM: BOX BOUNDS xy xz yz pp pp pp
-3.7004999999999999e+00 7.4009999999999998e+00 -3.7004999999999999e+00
0.0000000000000000e+00 6.4094540134086300e+00 0.0000000000000000e+00
0.0000000000000000e+00 4.0329638543820927e+01 0.0000000000000000e+00
ITEM: ATOMS id type xs ys zs
19 2 0 0 0
20 2 0.5 0 0.0583118
21 2 0.666667 0.333333 0.077749
22 2 0.672151 0.335321 0.135607
23 2 0.335446 0.165804 0.15528
31 2 0.5 0.5 0
32 2 1 0.5 0.0583118
33 2 0.166667 0.833333 0.077749
34 2 0.175994 0.838523 0.134867
35 2 0.837329 0.662372 0.155945
43 2 0.5 0 0
44 2 0 0 0.0583118
45 2 0.166667 0.333333 0.077749
46 2 0.171209 0.331661 0.13567
47 2 0.837021 0.167182 0.154674
55 2 1 0.5 0
56 2 0.5 0.5 0.0583118
57 2 0.666667 0.833333 0.077749
58 2 0.668526 0.830423 0.136139
59 2 0.336922 0.66491 0.156584
24 2 0.327957 0.155583 0.213283
25 2 0.99418 0.500337 0.234028
26 2 0.501562 0.00404145 0.290196
27 2 0.664056 0.33691 0.311952
36 2 0.821027 0.661166 0.21449
37 2 0.498703 0.993358 0.23264
38 2 0.992549 0.496421 0.291408
39 2 0.162689 0.828618 0.311515
48 2 0.828858 0.164713 0.213658
49 2 0.483485 0.488202 0.233623
50 2 0.99447 0.994527 0.290399
51 2 0.16254 0.332661 0.311281
60 2 0.325687 0.666145 0.213419
61 2 0.997718 0.9984 0.234012
62 2 0.496825 0.503696 0.291009
63 2 0.667457 0.839336 0.310893
1 1 0.991272 0.992415 0.496532
2 1 0.215794 0.109796 0.49506
3 1 0.99688 0.344028 0.496371
4 1 0.222324 0.45435 0.490462
5 1 0.982599 0.659707 0.491715
6 1 0.216628 0.780348 0.491521
7 1 0.328911 1.00162 0.493613
8 1 0.548974 0.112365 0.502025
9 1 0.33289 0.337108 0.494345
10 1 0.545889 0.443221 0.504286
11 1 0.328547 0.676905 0.493066
12 1 0.551386 0.785789 0.495608
13 1 0.656147 0.00408132 0.48999
14 1 0.884927 0.10788 0.49056
15 1 0.658186 0.334151 0.508208
16 1 0.881288 0.447766 0.503717
17 1 0.655866 0.662651 0.496289
18 1 0.874063 0.772353 0.496285
28 2 0.680612 0.342705 0.369302
29 2 0.353475 0.17263 0.390257
30 2 0.333859 0.181621 0.447915
40 2 0.167917 0.844006 0.370282
41 2 0.850004 0.683044 0.391273
42 2 0.800798 0.643832 0.448153
52 2 0.177948 0.338352 0.369712
53 2 0.840392 0.165102 0.391618
54 2 0.822462 0.203332 0.447021
64 2 0.67207 0.839753 0.369565
65 2 0.334716 0.670721 0.386376
66 2 0.326628 0.662456 0.443923
67 3 0.222322 0.143525 0.587496
68 3 0.189 0.487569 0.59869
69 3 0.18738 0.820087 0.578977
70 3 0.542879 0.114735 0.557285
71 3 0.502274 0.471061 0.555083
72 3 0.529433 0.785616 0.588075
73 3 0.878752 0.170174 0.578943
74 3 0.869223 0.493445 0.554045
75 3 0.84761 0.812089 0.599939
ITEM: TIMESTEP
250
ITEM: NUMBER OF ATOMS
75
ITEM: BOX BOUNDS xy xz yz pp pp pp
-3.7004999999999999e+00 7.4009999999999998e+00 -3.7004999999999999e+00
0.0000000000000000e+00 6.4094540134086300e+00 0.0000000000000000e+00
0.0000000000000000e+00 4.0329638543820927e+01 0.0000000000000000e+00
ITEM: ATOMS id type xs ys zs
19 2 0 0 0
20 2 0.5 0 0.0583118
21 2 0.666667 0.333333 0.077749
22 2 0.670542 0.333338 0.13547
23 2 0.335477 0.165599 0.155671
31 2 0.5 0.5 0
32 2 1 0.5 0.0583118
33 2 0.166667 0.833333 0.077749
34 2 0.172883 0.834166 0.134881
35 2 0.838699 0.665346 0.155853
43 2 0.5 0 0
44 2 0 0 0.0583118
45 2 0.166667 0.333333 0.077749
46 2 0.171132 0.331674 0.13583
47 2 0.838995 0.168085 0.155464
55 2 1 0.5 0
56 2 0.5 0.5 0.0583118
57 2 0.666667 0.833333 0.077749
58 2 0.669197 0.831312 0.136344
59 2 0.335154 0.664827 0.156169
24 2 0.328024 0.158351 0.213292
25 2 0.99309 0.498295 0.233675
26 2 0.500073 0.00351399 0.290676
27 2 0.662386 0.335226 0.311898
36 2 0.823262 0.661064 0.213997
37 2 0.496214 0.994753 0.232924
38 2 0.994788 0.498021 0.291362
39 2 0.1643 0.83271 0.311184
48 2 0.828402 0.162813 0.213446
49 2 0.486065 0.491256 0.233432
50 2 0.996963 0.997496 0.29087
51 2 0.162574 0.331963 0.311093
60 2 0.326276 0.663592 0.213254
61 2 0.996319 0.997347 0.233461
62 2 0.496017 0.500858 0.291322
63 2 0.665335 0.83752 0.310936
1 1 0.992558 0.995009 0.496941
2 1 0.214818 0.110269 0.495354
3 1 0.995485 0.343331 0.498026
4 1 0.218122 0.455739 0.490982
5 1 0.984519 0.662502 0.492828
6 1 0.215278 0.780651 0.489826
7 1 0.329683 0.00890518 0.494653
8 1 0.543591 0.108373 0.501709
9 1 0.331867 0.338605 0.495008
10 1 0.542122 0.444654 0.50489
11 1 0.329506 0.674976 0.491967
12 1 0.55222 0.788177 0.494783
13 1 0.659681 0.0111693 0.490659
14 1 0.877658 0.110165 0.491041
15 1 0.656628 0.332203 0.506512
16 1 0.887267 0.45261 0.503061
17 1 0.653762 0.662442 0.499151
18 1 0.878608 0.777045 0.495706
28 2 0.681712 0.34283 0.369418
29 2 0.350332 0.172594 0.390054
30 2 0.339969 0.18646 0.44858
40 2 0.173243 0.843903 0.370014
41 2 0.848039 0.682359 0.391652
42 2 0.79381 0.633831 0.448842
52 2 0.176805 0.336201 0.369726
53 2 0.841782 0.163568 0.391704
54 2 0.81698 0.208421 0.446948
64 2 0.673671 0.839584 0.369619
65 2 0.336422 0.671874 0.385824
66 2 0.325158 0.659719 0.445432
67 3 0.233145 0.150318 0.592159
68 3 0.190683 0.484703 0.605229
69 3 0.188013 0.814004 0.58148
70 3 0.539173 0.106769 0.557293
71 3 0.501121 0.475638 0.555326
72 3 0.530743 0.78625 0.592052
73 3 0.879537 0.164271 0.581873
74 3 0.883323 0.495984 0.554384
75 3 0.850582 0.797393 0.606268
ITEM: TIMESTEP
275
ITEM: NUMBER OF ATOMS
75
ITEM: BOX BOUNDS xy xz yz pp pp pp
-3.7004999999999999e+00 7.4009999999999998e+00 -3.7004999999999999e+00
0.0000000000000000e+00 6.4094540134086300e+00 0.0000000000000000e+00
0.0000000000000000e+00 4.0329638543820927e+01 0.0000000000000000e+00
ITEM: ATOMS id type xs ys zs
19 2 0 0 0
20 2 0.5 0 0.0583118
21 2 0.666667 0.333333 0.077749
22 2 0.668989 0.331488 0.135308
23 2 0.335917 0.165336 0.156077
31 2 0.5 0.5 0
32 2 1 0.5 0.0583118
33 2 0.166667 0.833333 0.077749
34 2 0.169342 0.829748 0.134981
35 2 0.839578 0.668258 0.155862
43 2 0.5 0 0
44 2 0 0 0.0583118
45 2 0.166667 0.333333 0.077749
46 2 0.170827 0.332015 0.135838
47 2 0.839993 0.168208 0.156309
55 2 1 0.5 0
56 2 0.5 0.5 0.0583118
57 2 0.666667 0.833333 0.077749
58 2 0.670105 0.832356 0.136343
59 2 0.33374 0.66491 0.155726
24 2 0.328138 0.161567 0.213237
25 2 0.991807 0.495941 0.233419
26 2 0.498062 0.00264617 0.291138
27 2 0.661276 0.333693 0.311837
36 2 0.825558 0.661139 0.213407
37 2 0.494048 0.996425 0.233358
38 2 0.997013 0.499788 0.291264
39 2 0.166114 0.836731 0.311017
48 2 0.828577 0.161615 0.213148
49 2 0.489704 0.494669 0.233375
50 2 0.99941 1.00058 0.2913
51 2 0.162794 0.331273 0.311081
60 2 0.326673 0.660712 0.213116
61 2 0.994415 0.995758 0.232995
62 2 0.495309 0.498396 0.291529
63 2 0.663457 0.835373 0.311149
1 1 0.989675 1.00226 0.497576
2 1 0.209604 0.112338 0.495895
3 1 0.994988 0.338518 0.499325
4 1 0.213866 0.451143 0.492608
5 1 0.99191 0.66898 0.494117
6 1 0.211991 0.785566 0.489113
7 1 0.325242 0.00556729 0.495285
8 1 0.545984 0.109001 0.50216
9 1 0.323954 0.337151 0.496037
10 1 0.543025 0.445543 0.50574