ITEM: TIMESTEP
0
ITEM: NUMBER OF ATOMS
70
ITEM: BOX BOUNDS xy xz yz pp pp pp
-3.7004999999999999e+00 7.4009999999999998e+00 -3.7004999999999999e+00
0.0000000000000000e+00 6.4094540134086300e+00 0.0000000000000000e+00
0.0000000000000000e+00 4.0329638543820927e+01 0.0000000000000000e+00
ITEM: ATOMS id type xs ys zs
19 2 0 0 0
20 2 0.5 0 0.0583118
21 2 0.666667 0.333333 0.077749
22 2 0.666667 0.333333 0.136061
23 2 0.333333 0.166667 0.155498
31 2 0.5 0.5 0
32 2 1 0.5 0.0583118
33 2 0.166667 0.833333 0.077749
34 2 0.166667 0.833333 0.136061
35 2 0.833333 0.666667 0.155498
43 2 0.5 0 0
44 2 0 0 0.0583118
45 2 0.166667 0.333333 0.077749
46 2 0.166667 0.333333 0.136061
47 2 0.833333 0.166667 0.155498
55 2 1 0.5 0
56 2 0.5 0.5 0.0583118
57 2 0.666667 0.833333 0.077749
58 2 0.666667 0.833333 0.136061
59 2 0.333333 0.666667 0.155498
24 2 0.333333 0.166667 0.21381
25 2 1 0.5 0.233247
26 2 0.5 0 0.291559
27 2 0.666667 0.333333 0.310996
36 2 0.833333 0.666667 0.21381
37 2 0.5 1 0.233247
38 2 1 0.5 0.291559
39 2 0.166667 0.833333 0.310996
48 2 0.833333 0.166667 0.21381
49 2 0.5 0.5 0.233247
50 2 0 0 0.291559
51 2 0.166667 0.333333 0.310996
60 2 0.333333 0.666667 0.21381
61 2 1 1 0.233247
62 2 0.5 0.5 0.291559
63 2 0.666667 0.833333 0.310996
1 1 0 0 0.496648
2 1 0.222222 0.111111 0.496648
3 1 -6.20862e-17 0.333333 0.496648
4 1 0.222222 0.444444 0.496648
5 1 1 0.666667 0.496648
6 1 0.222222 0.777778 0.496648
7 1 0.333333 0 0.496648
8 1 0.555556 0.111111 0.496648
9 1 0.333333 0.333333 0.496648
10 1 0.555556 0.444444 0.496648
11 1 0.333333 0.666667 0.496648
12 1 0.555556 0.777778 0.496648
13 1 0.666667 0 0.496648
14 1 0.888889 0.111111 0.496648
15 1 0.666667 0.333333 0.496648
16 1 0.888889 0.444444 0.496648
17 1 0.666667 0.666667 0.496648
18 1 0.888889 0.777778 0.496648
28 2 0.666667 0.333333 0.369308
29 2 0.333333 0.166667 0.388745
30 2 0.333333 0.166667 0.447057
40 2 0.166667 0.833333 0.369308
41 2 0.833333 0.666667 0.388745
42 2 0.833333 0.666667 0.447057
52 2 0.166667 0.333333 0.369308
53 2 0.833333 0.166667 0.388745
54 2 0.833333 0.166667 0.447057
64 2 0.666667 0.833333 0.369308
65 2 0.333333 0.666667 0.388745
66 2 0.333333 0.666667 0.447057
67 3 0.25 0.25 0.553678
68 3 0.25 0.75 0.553678
69 3 0.75 0.25 0.553678
70 3 0.75 0.75 0.553678
ITEM: TIMESTEP
19
ITEM: NUMBER OF ATOMS
70
ITEM: BOX BOUNDS xy xz yz pp pp pp
-3.7004999999999999e+00 7.4009999999999998e+00 -3.7004999999999999e+00
0.0000000000000000e+00 6.4094540134086300e+00 0.0000000000000000e+00
0.0000000000000000e+00 4.0329638543820927e+01 0.0000000000000000e+00
ITEM: ATOMS id type xs ys zs
19 2 0 0 0
20 2 0.5 0 0.0583118
21 2 0.666667 0.333333 0.077749
22 2 0.666664 0.333336 0.135447
23 2 0.333337 0.16667 0.155964
31 2 0.5 0.5 0
32 2 1 0.5 0.0583118
33 2 0.166667 0.833333 0.077749
34 2 0.166669 0.833331 0.135449
35 2 0.83333 0.666663 0.155964
43 2 0.5 0 0
44 2 0 0 0.0583118
45 2 0.166667 0.333333 0.077749
46 2 0.166674 0.33334 0.135448
47 2 0.833332 0.166668 0.155959
55 2 1 0.5 0
56 2 0.5 0.5 0.0583118
57 2 0.666667 0.833333 0.077749
58 2 0.66666 0.833326 0.135448
59 2 0.333334 0.666666 0.155968
24 2 0.33336 0.166692 0.213423
25 2 0.999972 0.499981 0.23378
26 2 0.500148 0.000272676 0.291274
27 2 0.666682 0.333318 0.312054
36 2 0.833308 0.66664 0.213423
37 2 0.500019 1.00003 0.23378
38 2 0.999727 0.499852 0.291274
39 2 0.166689 0.833311 0.311823
48 2 0.833324 0.166676 0.213416
49 2 0.500012 0.499988 0.233795
50 2 -1.68141e-05 1.68141e-05 0.291227
51 2 0.166683 0.333405 0.311845
60 2 0.333341 0.666659 0.213427
61 2 0.999997 1 0.233765
62 2 0.500132 0.499868 0.291288
63 2 0.666595 0.833317 0.311845
1 1 0.000363031 -0.000363031 0.500498
2 1 0.224078 0.112447 0.496546
3 1 -0.00332779 0.332861 0.493414
4 1 0.220961 0.44344 0.49405
5 1 0.995843 0.66359 0.494011
6 1 0.221089 0.778911 0.495224
7 1 0.33641 0.00415687 0.494011
8 1 0.554896 0.107548 0.500489
9 1 0.335893 0.333035 0.4944
10 1 0.553185 0.446815 0.500072
11 1 0.332872 0.667128 0.498318
12 1 0.55656 0.779039 0.49405
13 1 0.667139 0.00332779 0.493414
14 1 0.888042 0.111958 0.495565
15 1 0.66586 0.33414 0.503023
16 1 0.892452 0.445104 0.500489
17 1 0.666965 0.664107 0.4944
18 1 0.887553 0.775922 0.496546
28 2 0.666734 0.333266 0.370188
29 2 0.334026 0.167333 0.390274
30 2 0.320359 0.15692 0.448633
40 2 0.16635 0.83365 0.369816
41 2 0.832667 0.665974 0.390274
42 2 0.84308 0.679641 0.448633
52 2 0.166452 0.332979 0.369844
53 2 0.833089 0.166911 0.390153
54 2 0.83859 0.16141 0.448228
64 2 0.667021 0.833548 0.369844
65 2 0.333309 0.666691 0.389984
66 2 0.33469 0.66531 0.448091
67 3 0.253843 0.250029 0.555609
68 3 0.250617 0.749383 0.555808
69 3 0.745728 0.254272 0.554404
70 3 0.749971 0.746157 0.555609
