ITEM: TIMESTEP
0
ITEM: NUMBER OF ATOMS
69
ITEM: BOX BOUNDS xy xz yz pp pp ff
-3.7004999999999999e+00 7.4009999999999998e+00 -3.7004999999999999e+00
0.0000000000000000e+00 6.4094540134086300e+00 0.0000000000000000e+00
0.0000000000000000e+00 4.0329638543820927e+01 0.0000000000000000e+00
ITEM: ATOMS id type xu yu zu
1 1 2.84475 -0.116846 20.3062
2 1 4.10398 0.51585 20.3106
3 1 1.64737 2.09217 20.2083
4 1 2.91709 2.69506 20.1494
5 1 0.342854 4.08071 20.3564
6 1 1.5867 4.78953 20.4556
7 1 5.24789 -0.195993 20.4307
8 1 6.59593 0.486608 20.233
9 1 3.94911 1.81272 20.1648
10 1 2.82314 4.08384 20.3486
11 1 4.10411 4.8414 20.4365
12 1 7.86213 -0.234001 20.4177
13 1 9.03034 0.526335 20.2736
14 1 6.85709 1.80276 19.9886
15 1 7.88874 2.71396 20.1087
16 1 5.30429 4.28958 20.3015
17 1 6.51883 4.86214 20.2933
18 2 0 0 0
19 2 3.7005 0 2.35169
20 2 3.7005 2.13648 3.13559
21 2 3.54391 2.09581 5.59709
22 2 1.56759 1.00448 6.42284
23 2 1.66857 0.803152 8.78019
24 2 5.38748 3.052 9.76612
25 2 3.52287 -0.261897 12.1803
26 2 3.6812 1.92428 12.8276
27 2 3.4008 2.15112 15.3437
28 2 1.73668 0.838289 16.7116
29 2 3.73527 1.73635 17.8555
30 2 1.85025 3.20473 0
31 2 5.55075 3.20473 2.35169
32 2 5.55075 5.34121 3.13559
33 2 5.49916 5.35505 5.44864
34 2 3.6994 4.31477 6.31907
35 2 3.53771 4.21502 8.7231
36 2 7.29784 6.27177 9.84797
37 2 5.50043 3.04828 12.1726
38 2 5.50667 4.98624 13.1223
39 2 5.51492 5.0849 15.6362
40 2 3.73444 4.02518 16.6621
41 2 5.33529 3.42228 18.4325
42 2 3.7005 0 0
43 2 7.401 0 2.35169
44 2 7.401 2.13648 3.13559
45 2 7.16967 2.15961 5.49643
46 2 5.37907 1.00802 6.63599
47 2 5.26234 0.980197 8.8544
48 2 9.11809 3.11662 9.41217
49 2 7.44325 -0.238756 12.2124
50 2 7.42428 1.91093 13.0934
51 2 7.48605 1.87645 15.4062
52 2 5.37345 0.901399 16.4965
53 2 7.02661 1.92642 17.7893
54 2 5.55075 3.20473 0
55 2 9.25125 3.20473 2.35169
56 2 9.25125 5.34121 3.13559
57 2 9.17291 5.31427 5.5521
58 2 7.36481 4.3025 6.24318
59 2 7.30908 4.20467 8.70728
60 2 10.9582 6.38631 9.79602
61 2 9.15072 2.90273 11.7193
62 2 9.10962 4.85982 12.7626
63 2 9.13069 4.02929 15.0702
64 2 7.08438 3.88951 16.6641
65 2 8.9321 5.06061 17.3602
66 3 31.0024 22.1592 24.0959
67 3 0.857041 40.7636 23.8269
68 3 21.8948 30.5752 23.4186
69 3 6.40482 25.8387 23.7525
ITEM: TIMESTEP
100
ITEM: NUMBER OF ATOMS
69
ITEM: BOX BOUNDS xy xz yz pp pp ff
-3.7004999999999999e+00 7.4009999999999998e+00 -3.7004999999999999e+00
0.0000000000000000e+00 6.4094540134086300e+00 0.0000000000000000e+00
0.0000000000000000e+00 4.0329638543820927e+01 0.0000000000000000e+00
ITEM: ATOMS id type xu yu zu
1 1 2.85519 -0.139971 20.472
2 1 4.08364 0.502745 20.2742
3 1 1.61668 1.96635 20.3693
4 1 2.83731 2.68759 20.2526
5 1 0.433507 4.13165 20.4868
6 1 1.70855 4.85495 20.4697
7 1 5.26014 -0.125624 20.39
8 1 6.51554 0.593592 20.1312
9 1 3.88414 1.7656 19.9753
10 1 2.90906 4.1168 20.3681
11 1 4.08331 4.91042 20.209
12 1 7.72377 -0.133538 20.1505
13 1 8.98592 0.461511 20.3467
14 1 6.78423 1.98383 19.9895
15 1 7.86016 2.7557 20.353
16 1 5.32613 4.30827 20.1445
17 1 6.5539 4.78051 20.4009
18 2 0 0 0
19 2 3.7005 0 2.35169
20 2 3.7005 2.13648 3.13559
21 2 3.63101 2.12665 5.63546
22 2 1.8072 1.13815 6.54756
23 2 1.61297 0.782334 8.93243
24 2 5.41386 3.14101 9.68946
25 2 3.72635 -0.338075 12.2781
26 2 3.70672 1.87934 12.9701
27 2 3.48675 1.99674 15.432
28 2 1.72175 0.90943 16.5082
29 2 3.68503 1.72831 17.911
30 2 1.85025 3.20473 0
31 2 5.55075 3.20473 2.35169
32 2 5.55075 5.34121 3.13559
33 2 5.43372 5.44599 5.55292
34 2 3.6253 4.24768 6.42973
35 2 3.5979 4.10483 8.68698
36 2 7.19563 6.07543 9.8952
37 2 5.53473 2.95377 11.9919
38 2 5.39716 5.12965 13.1179
39 2 5.4632 5.15527 15.5476
40 2 3.68613 3.99075 16.6375
41 2 5.39394 3.49131 18.392
42 2 3.7005 0 0
43 2 7.401 0 2.35169
44 2 7.401 2.13648 3.13559
45 2 7.33973 2.11322 5.61625
46 2 5.47709 1.13933 6.56162
47 2 5.30955 0.894994 9.07233
48 2 9.05622 2.95853 9.44904
49 2 7.23201 -0.145195 12.3343
50 2 7.37967 2.16386 12.9122
51 2 7.34603 1.86052 15.4028
52 2 5.29286 0.768888 16.4951
53 2 7.08297 1.87361 17.8926
54 2 5.55075 3.20473 0
55 2 9.25125 3.20473 2.35169
56 2 9.25125 5.34121 3.13559
57 2 9.25031 5.47909 5.48612
58 2 7.32299 4.34898 6.30621
59 2 7.18145 4.13178 8.66295
60 2 10.7496 6.12551 9.79102
61 2 9.3603 2.90063 11.8522
62 2 9.29209 4.99427 12.9536
63 2 9.18668 4.09147 15.2064
64 2 7.14929 3.92569 16.5953
65 2 9.10453 5.05531 17.2788
66 3 30.9767 21.7492 24.1498
67 3 1.09702 40.9578 23.3685
68 3 21.8286 30.4871 23.5273
69 3 6.30875 25.4713 23.8198
ITEM: TIMESTEP
200
ITEM: NUMBER OF ATOMS
69
ITEM: BOX BOUNDS xy xz yz pp pp ff
-3.7004999999999999e+00 7.4009999999999998e+00 -3.7004999999999999e+00
0.0000000000000000e+00 6.4094540134086300e+00 0.0000000000000000e+00
0.0000000000000000e+00 4.0329638543820927e+01 0.0000000000000000e+00
ITEM: ATOMS id type xu yu zu
1 1 2.88313 -0.100061 20.4096
2 1 4.07243 0.55693 20.1951
3 1 1.6137 2.05859 20.4992
4 1 2.77381 2.73471 20.3182
5 1 0.380799 4.07709 20.2499
6 1 1.56996 4.87983 20.2257
7 1 5.30725 -0.123484 20.0984
8 1 6.6026 0.504528 20.305
9 1 3.80081 1.81861 20.1241
10 1 2.83724 4.18374 20.2179
11 1 4.10457 4.84393 20.2211
12 1 7.79179 -0.134925 20.41
13 1 9.04854 0.56677 20.4608
14 1 6.7267 1.73839 20.2623
15 1 7.68116 2.61836 20.3233
16 1 5.34438 4.28231 20.1036
17 1 6.56216 4.79503 20.359
18 2 0 0 0
19 2 3.7005 0 2.35169
20 2 3.7005 2.13648 3.13559
21 2 3.78113 2.1865 5.46099
22 2 1.97846 1.13111 6.65443
23 2 1.59056 0.731338 9.02844
24 2 5.39846 3.028 9.57693
25 2 3.6915 -0.366348 12.2949
26 2 3.75605 1.73544 13.1425
27 2 3.46792 1.88177 15.4889
28 2 1.68128 0.816898 16.3745
29 2 3.76615 1.9564 17.9232
30 2 1.85025 3.20473 0
31 2 5.55075 3.20473 2.35169
32 2 5.55075 5.34121 3.13559
33 2 5.43721 5.44012 5.61366
34 2 3.51542 4.28793 6.41998
35 2 3.46289 3.98361 8.85234
36 2 7.08238 6.07546 9.81676
37 2 5.40155 3.06814 12.0054
38 2 5.41234 5.26964 13.0887
39 2 5.32846 5.22956 15.4568
40 2 3.8064 3.96581 16.6253
41 2 5.42181 3.64376 18.2419
42 2 3.7005 0 0
43 2 7.401 0 2.35169
44 2 7.401 2.13648 3.13559
45 2 7.54246 2.18117 5.59912
46 2 5.59499 1.15705 6.46116
47 2 5.34772 0.834109 9.02516
48 2 9.09184 2.89778 9.69766
49 2 7.24675 0.0038642 12.1076
50 2 7.40184 2.06849 12.8007
51 2 7.20498 2.0402 15.4287
52 2 5.46524 0.73552 16.4256
53 2 7.00108 1.81931 17.8142
54 2 5.55075 3.20473 0
55 2 9.25125 3.20473 2.35169
56 2 9.25125 5.34121 3.13559
57 2 9.2731 5.50998 5.53079
58 2 7.27509 4.32998 6.45102
59 2 7.2311 4.03402 8.73863
60 2 10.8007 5.97962 9.93893
61 2 9.43005 2.98591 12.0793
62 2 9.32062 5.10247 13.3118
63 2 9.2188 3.86306 15.2899
64 2 7.1753 4.04689 16.5243
65 2 9.29198 5.13444 17.2947
66 3 31.0482 21.1095 23.9252
67 3 1.12747 40.9828 23.105
68 3 21.9117 30.5597 23.7076
69 3 6.18106 25.2167 23.6857
ITEM: TIMESTEP
300
ITEM: NUMBER OF ATOMS
69
ITEM: BOX BOUNDS xy xz yz pp pp ff
-3.7004999999999999e+00 7.4009999999999998e+00 -3.7004999999999999e+00
0.0000000000000000e+00 6.4094540134086300e+00 0.0000000000000000e+00
0.0000000000000000e+00 4.0329638543820927e+01 0.0000000000000000e+00
ITEM: ATOMS id type xu yu zu
1 1 2.86496 0.00101386 20.3498
2 1 4.08272 0.635986 20.1578
3 1 1.78734 1.95728 20.4381
4 1 2.85646 2.68193 20.276
5 1 0.296438 4.25271 20.2059
6 1 1.52744 4.86001 20.2118
7 1 5.17327 -0.143644 20.3143
8 1 6.4987 0.41147 20.3267
9 1 3.95489 1.97049 19.9129
10 1 2.83104 4.05647 20.2879
11 1 4.04113 4.73495 20.4594
12 1 7.71279 -0.201773 20.7026
13 1 8.97267 0.467356 20.654
14 1 6.83774 1.8182 19.8366
15 1 7.84481 2.76617 20.2758
16 1 5.32831 4.46256 20.1578
17 1 6.5133 4.98895 20.2162
18 2 0 0 0
19 2 3.7005 0 2.35169
20 2 3.7005 2.13648 3.13559
21 2 3.83386 2.21794 5.4761
22 2 2.00745 1.01201 6.55418
23 2 1.5732 0.725866 8.94096
24 2 5.31532 2.78247 9.73078
25 2 3.61402 -0.368378 12.1853
26 2 3.78381 1.76311 13.1829
27 2 3.49735 1.90313 15.594
28 2 1.51082 0.78035 16.5478
29 2 3.76578 2.00524 17.8694
30 2 1.85025 3.20473 0
31 2 5.55075 3.20473 2.35169
32 2 5.55075 5.34121 3.13559
33 2 5.47769 5.34667 5.59746
34 2 3.63535 4.33718 6.46668
35 2 3.37177 3.92698 8.8517
36 2 7.28934 6.19272 9.83203
37 2 5.33458 3.19567 12.1543
38 2 5.37116 5.21334 12.946
39 2 5.35659 5.11999 15.3456
40 2 3.81198 3.9654 16.59
41 2 5.47733 3.61964 18.2708
42 2 3.7005 0 0
43 2 7.401 0 2.35169
44 2 7.401 2.13648 3.13559
45 2 7.62507 2.23123 5.51857
46 2 5.74622 1.12536 6.4663
47 2 5.34357 0.670662 8.67975
48 2 9.05464 2.91196 10.0535
49 2 7.38138 -0.173113 12.158
50 2 7.29616 2.062 13.0079
51 2 7.38667 2.19046 15.2976
52 2 5.48203 0.939574 16.379
53 2 7.03821 1.8846 17.9148
54 2 5.55075 3.20473 0
55 2 9.25125 3.20473 2.35169
56 2 9.25125 5.34121 3.13559
57 2 9.0534 5.33035 5.57484
58 2 7.4093 4.31676 6.48266
59 2 7.40992 3.98894 8.96309
60 2 10.937 6.12971 9.77093
61 2 9.30622 3.13795 12.2927
62 2 9.27251 5.18638 13.427
63 2 9.21389 3.6406 15.3619
64 2 7.17567 4.23092 16.6403
65 2 9.31031 5.06482 17.222
66 3 31.1233 20.788 23.3938
67 3 0.885258 41.0604 23.1952
68 3 21.9135 30.5057 23.8328
69 3 6.40702 24.5934 23.3348
ITEM: TIMESTEP
400
ITEM: NUMBER OF ATOMS
69
ITEM: BOX BOUNDS xy xz yz pp pp ff
-3.7004999999999999e+00 7.4009999999999998e+00 -3.7004999999999999e+00
0.0000000000000000e+00 6.4094540134086300e+00 0.0000000000000000e+00
0.0000000000000000e+00 4.0329638543820927e+01 0.0000000000000000e+00
ITEM: ATOMS id type xu yu zu
1 1 2.83852 -0.166184 20.5396
2 1 4.1034 0.48897 20.1387
3 1 1.55961 2.18701 20.3418
4 1 2.80664 2.7956 20.1791
5 1 0.458837 4.14457 20.3732
6 1 1.76553 4.94791 20.5057
7 1 5.4466 -0.115491 20.2353
8 1 6.59556 0.609144 20.2334
9 1 3.73487 1.83611 19.9196
10 1 2.98308 4.16791 20.4447
11 1 4.11861 4.92553 20.3158
12 1 7.85881 0.00823852 20.3795
13 1 9.06201 0.621478 20.4462
14 1 6.77817 2.01552 20.0012
15 1 7.80846 2.88497 20.0565
16 1 5.38649 4.35839 20.1764
17 1 6.54237 4.85535 20.4964
18 2 0 0 0
19 2 3.7005 0 2.35169
20 2 3.7005 2.13648 3.13559
21 2 3.81886 2.12196 5.73547
22 2 1.92817 0.985531 6.32794
23 2 1.91736 0.944936 8.80339
24 2 5.33944 2.79765 9.847
25 2 3.72435 -0.22882 12.1745
26 2 3.5466 1.96994 13.1387
27 2 3.3787 1.9001 15.5492
28 2 1.52061 0.704724 16.7491
29 2 3.81623 1.79497 17.8099
30 2 1.85025 3.20473 0
31 2 5.55075 3.20473 2.35169
32 2 5.55075 5.34121 3.13559
33 2 5.65487 5.22896 5.5031
34 2 3.70005 4.23313 6.51148
35 2 3.6023 3.98406 8.90595
36 2 7.39076 6.18498 9.77236
37 2 5.42147 2.85366 12.1851
38 2 5.50406 5.0985 13.0218
39 2 5.48159 5.13233 15.3926
40 2 3.78133 4.00893 16.5904
41 2 5.33112 3.60219 18.4342
42 2 3.7005 0 0
43 2 7.401 0 2.35169
44 2 7.401 2.13648 3.13559
45 2 7.57057 2.10162 5.52626
46 2 5.7006 1.02489 6.23853
47 2 5.49677 0.729562 8.61671
48 2 9.08106 2.81395 10.0127
49 2 7.17537 -0.229728 12.3171
50 2 7.20287 2.04014 13.1436
51 2 7.58274 2.2038 15.513
52 2 5.50278 0.922628 16.4504
53 2 7.07544 2.04499 17.6855
54 2 5.55075 3.20473 0
55 2 9.25125 3.20473 2.35169
56 2 9.25125 5.34121 3.13559
57 2 9.272 5.3013 5.48126
58 2 7.33893 4.12042 6.66051
59 2 7.21283 4.01313 9.15603
60 2 10.936 6.14195 9.49916
61 2 9.12402 3.07553 12.3931
62 2 9.158 5.23055 13.2523
63 2 9.19833 3.84951 15.3585
64 2 7.15139 4.18357 16.7567
65 2 9.18133 5.28569 17.1657
66 3 31.2597 20.4802 22.7796
67 3 0.62327 40.8786 23.4434
68 3 21.7983 30.7523 23.8414
69 3 6.63275 23.8538 23.1239
ITEM: TIMESTEP
500
ITEM: NUMBER OF ATOMS
69
ITEM: BOX BOUNDS xy xz yz pp pp ff
-3.7004999999999999e+00 7.4009999999999998e+00 -3.7004999999999999e+00
0.0000000000000000e+00 6.4094540134086300e+00 0.0000000000000000e+00
0.0000000000000000e+00 4.0329638543820927e+01 0.0000000000000000e+00
ITEM: ATOMS id type xu yu zu
1 1 2.89827 -0.0332231 20.3433
2 1 4.09258 0.717736 20.3867
3 1 1.83428 2.13474 20.1811
4 1 3.05006 2.84819 20.2179
5 1 0.433699 4.27378 20.4844
6 1 1.6006 4.985 20.3008
7 1 5.28859 -0.0576083 20.2785
8 1 6.61675 0.578289 20.0704
9 1 4.09199 1.96771 20.2173
10 1 2.91276 4.30047 20.2204
11 1 4.1279 5.00262 20.3743
12 1 7.87817 -0.0875802 20.1654
13 1 9.10589 0.648982 20.1674
14 1 6.86454 1.97693 19.9762
15 1 7.96157 2.77851 20.4662
16 1 5.36134 4.42912 20.467
17 1 6.61111 4.95847 20.4662
18 2 0 0 0
19 2 3.7005 0 2.35169
20 2 3.7005 2.13648 3.13559
21 2 3.68989 2.0021 5.54662
22 2 1.91053 0.898875 6.347
23 2 2.03795 0.891774 8.6554
24 2 5.46176 2.89924 9.85169
25 2 3.58911 -0.00565209 12.2054
26 2 3.32646 1.97999 13.0985
27 2 3.33987 1.96213 15.4687
28 2 1.82946 0.757057 16.769
29 2 3.78963 1.65889 17.895
30 2 1.85025 3.20473 0
31 2 5.55075 3.20473 2.35169
32 2 5.55075 5.34121 3.13559
33 2 5.70295 5.1284 5.54812
34 2 3.83598 4.13986 6.505
35 2 3.70445 4.00101 8.94983
36 2 7.42011 6.18262 9.72904
37 2 5.37713 2.76177 12.2411
38 2 5.57516 5.00405 13.0948
39 2 5.5299 5.19138 15.6382
40 2 3.74867 4.08044 16.6868
41 2 5.31974 3.60824 18.3941
42 2 3.7005 0 0
43 2 7.401 0 2.35169
44 2 7.401 2.13648 3.13559
45 2 7.38385 1.99643 5.50973
46 2 5.56586 0.84683 6.24117
47 2 5.58823 0.941298 8.71501
48 2 9.1883 3.05387 9.67939
49 2 7.25119 -0.18532 12.1307
50 2 7.31643 1.73797 13.2921
51 2 7.46632 2.08067 15.6642
52 2 5.50557 0.986581 16.3193
53 2 6.96105 2.08491 17.9176
54 2 5.55075 3.20473 0
55 2 9.25125 3.20473 2.35169
56 2 9.25125 5.34121 3.13559
57 2 9.43592 5.12064 5.52465
58 2 7.44352 4.01262 6.69268
59 2 7.1463 3.99358 9.06656
60 2 11.2518 6.22653 9.68197
61 2 8.90602 2.9028 12.0066
62 2 8.98636 5.03947 13.1347
63 2 9.1686 4.29936 15.3647
64 2 7.12674 4.11793 16.7395
65 2 9.13464 5.36461 17.4187
66 3 31.5119 19.7852 22.559
67 3 0.338571 40.8005 23.7078
68 3 22.1386 31.0993 23.5477
69 3 6.27905 23.3436 23.2151
ITEM: TIMESTEP
600
ITEM: NUMBER OF ATOMS
69
ITEM: BOX BOUNDS xy xz yz pp pp ff
-3.7004999999999999e+00 7.4009999999999998e+00 -3.7004999999999999e+00
0.0000000000000000e+00 6.4094540134086300e+00 0.0000000000000000e+00
0.0000000000000000e+00 4.0329638543820927e+01 0.0000000000000000e+00
ITEM: ATOMS id type xu yu zu
1 1 3.02807 0.0255116 20.2442
2 1 4.23438 0.690124 20.3401
3 1 1.65642 2.09738 20.3344
4 1 2.84859 2.84167 20.3016
5 1 0.396717 4.2355 20.2877
6 1 1.65389 4.88997 20.3877
7 1 5.42345 -0.0662941 20.4427
8 1 6.62768 0.650446 20.3826
9 1 4.02101 1.99812 20.0639
10 1 2.88996 4.20731 20.3327
11 1 4.15139 5.03455 20.2937
12 1 7.87838 -0.0614782 20.287
13 1 9.15131 0.644256 20.2108
14 1 6.84958 2.01448 20.0598
15 1 7.91731 2.85885 20.2433
16 1 5.4017 4.51377 20.1883
17 1 6.65938 5.03633 20.383
18 2 0 0 0
19 2 3.7005 0 2.35169
20 2 3.7005 2.13648 3.13559
21 2 3.66419 1.94286 5.32459
22 2 1.81056 0.783756 6.37121
23 2 1.92396 0.875885 8.73873
24 2 5.47339 2.95173 9.92053
25 2 3.42761 -0.196406 12.1085
26 2 3.33631 2.0141 13.026
27 2 3.4522 2.21352 15.54
28 2 1.8776 0.969084 16.7574
29 2 3.89439 1.88312 18.0049
30 2 1.85025 3.20473 0
31 2 5.55075 3.20473 2.35169
32 2 5.55075 5.34121 3.13559
33 2 5.69326 5.1033 5.61702
34 2 3.93543 3.97087 6.49837
35 2 3.77234 4.22365 8.84508
36 2 7.49492 6.2772 9.75008
37 2 5.3815 2.85731 12.3797
38 2 5.41774 5.03387 13.1699
39 2 5.41102 5.20286 15.7246
40 2 3.64796 4.08865 16.7901
41 2 5.4461 3.61951 18.491
42 2 3.7005 0 0
43 2 7.401 0 2.35169
44 2 7.401 2.13648 3.13559
45 2 7.31374 1.89113 5.54763
46 2 5.45184 0.756132 6.50666
47 2 5.70171 0.835364 8.88765
48 2 9.25324 3.12452 9.41272
49 2 7.43134 -0.50563 12.1091
50 2 7.26623 1.60213 13.1973
51 2 7.47839 1.98578 15.6333
52 2 5.37756 0.931586 16.2696
53 2 7.05638 2.01432 17.9457
54 2 5.55075 3.20473 0
55 2 9.25125 3.20473 2.35169
56 2 9.25125 5.34121 3.13559
57 2 9.3319 4.93955 5.62553
58 2 7.60278 4.03216 6.40413
59 2 7.47872 4.15027 8.73374
60 2 11.3521 6.34045 9.83879
61 2 8.82267 2.90785 11.7958
62 2 8.98749 4.96802 12.8036
63 2 9.08296 4.54083 15.3794
64 2 7.23942 4.14816 16.785
65 2 9.15422 5.35954 17.5636
66 3 31.8361 19.3521 22.5445
67 3 0.0347087 40.6032 23.9403
68 3 22.1514 31.4113 23.4576
69 3 6.17887 22.8496 23.484
ITEM: TIMESTEP
700
ITEM: NUMBER OF ATOMS
69
ITEM: BOX BOUNDS xy xz yz pp pp ff
-3.7004999999999999e+00 7.4009999999999998e+00 -3.7004999999999999e+00
0.0000000000000000e+00 6.4094540134086300e+00 0.0000000000000000e+00
0.0000000000000000e+00 4.0329638543820927e+01 0.0000000000000000e+00
ITEM: ATOMS id type xu yu zu
1 1 2.83997 -0.0331039 20.3642
2 1 4.13614 0.638056 20.0723
3 1 1.62256 2.20783 20.3785
4 1 2.92926 2.87675 20.208
5 1 0.557738 4.32356 20.3828
6 1 1.84867 5.00362 20.5294
7 1 5.53199 0.0500038 20.2756
8 1 6.68712 0.707987 20.2823
9 1 3.97021 1.93034 19.9868
10 1 3.01337 4.25826 20.3905
11 1 4.32253 4.99561 20.3296
12 1 7.87486 -0.00124201 20.3831
13 1 9.09132 0.757363 20.4895
14 1 6.8504 2.06166 20.1046
15 1 7.87125 2.91004 20.2654
16 1 5.51539 4.39053 20.0811
17 1 6.72665 4.9914 20.2598
18 2 0 0 0
19 2 3.7005 0 2.35169
20 2 3.7005 2.13648 3.13559
21 2 3.69668 1.78756 5.66005
22 2 1.80108 0.839653 6.39259
23 2 1.96197 0.954005 8.80519
24 2 5.66589 3.0997 9.81403
25 2 3.44013 -0.394751 12.0657
26 2 3.41718 1.92028 12.94
27 2 3.41194 2.33712 15.5169
28 2 1.77787 1.02867 16.7269
29 2 3.77883 2.16523 17.8479
30 2 1.85025 3.20473 0
31 2 5.55075 3.20473 2.35169
32 2 5.55075 5.34121 3.13559
33 2 5.62132 5.09156 5.44938
34 2 3.83194 3.89708 6.41648
35 2 3.94199 4.27497 8.76814
36 2 7.46652 6.31438 9.70351
37 2 5.44973 2.9319 12.3333
38 2 5.43245 4.98155 13.3989
39 2 5.37243 5.30813 15.7461
40 2 3.7121 4.24656 16.8894
41 2 5.4595 3.57348 18.3391
42 2 3.7005 0 0
43 2 7.401 0 2.35169
44 2 7.401 2.13648 3.13559
45 2 7.31191 1.74594 5.56806
46 2 5.47864 0.754956 6.62372
47 2 5.69018 0.849427 9.08313
48 2 9.40848 3.0307 9.47073
49 2 7.25086 -0.579877 12.2202
50 2 7.18571 1.66975 12.9339
51 2 7.53081 2.08114 15.4719
52 2 5.38282 0.859068 16.4072
53 2 7.20232 1.7511 17.7957
54 2 5.55075 3.20473 0
55 2 9.25125 3.20473 2.35169
56 2 9.25125 5.34121 3.13559
57 2 9.48388 5.13517 5.50063
58 2 7.41295 3.95387 6.19504
59 2 7.47882 4.26539 8.57322
60 2 11.1797 6.24822 9.84866
61 2 8.93993 2.88141 11.851
62 2 9.06167 4.98412 12.6564
63 2 9.04581 4.6353 15.2407
64 2 7.15981 4.10045 16.7812
65 2 9.14481 5.38656 17.5246
66 3 32.1431 18.9544 22.8502
67 3 -0.267402 40.5547 24.1034
68 3 22.1477 31.5012 23.528
69 3 6.07669 22.4973 23.7494
ITEM: TIMESTEP
800
ITEM: NUMBER OF ATOMS
69
ITEM: BOX BOUNDS xy xz yz pp pp ff
-3.7004999999999999e+00 7.4009999999999998e+00 -3.7004999999999999e+00
0.0000000000000000e+00 6.4094540134086300e+00 0.0000000000000000e+00
0.0000000000000000e+00 4.0329638543820927e+01 0.0000000000000000e+00
ITEM: ATOMS id type xu yu zu
1 1 3.07003 0.0585171 20.4158
2 1 4.21084 0.788859 20.1823
3 1 1.90308 2.16318 20.525
4 1 3.02309 2.93251 20.3432
5 1 0.561138 4.36418 20.4251
6 1 1.67701 5.00616 20.199
7 1 5.37119 0.0381273 20.1808
8 1 6.63359 0.533988 20.3039
9 1 4.06851 2.08804 19.93
10 1 2.92101 4.33276 20.2353
11 1 4.27268 5.08307 20.3297
12 1 7.9538 -0.0296273 20.4186
13 1 9.29304 0.713167 20.3778
14 1 7.11932 1.91252 19.8161
15 1 8.05427 2.79969 20.3124
16 1 5.53649 4.50975 20.297
17 1 6.70672 5.07016 20.4913
18 2 0 0 0
19 2 3.7005 0 2.35169
20 2 3.7005 2.13648 3.13559
21 2 3.76419 1.78149 5.77152
22 2 1.86613 0.798278 6.554
23 2 1.8615 0.879173 8.81158
24 2 5.88928 3.21048 9.6925
25 2 3.49379 -0.331931 12.1184
26 2 3.60478 1.68496 12.9365
27 2 3.26153 2.34766 15.2977
28 2 1.76639 1.03005 16.6081
29 2 3.64444 2.05455 17.6803
30 2 1.85025 3.20473 0
31 2 5.55075 3.20473 2.35169
32 2 5.55075 5.34121 3.13559
33 2 5.46363 5.11494 5.39423
34 2 3.69774 4.06159 6.35146
35 2 3.94203 3.98233 8.74797
36 2 7.3544 6.1956 9.69912
37 2 5.37349 2.96794 12.0175
38 2 5.47026 4.97599 13.3493
39 2 5.54034 5.43263 15.7458
40 2 3.71402 4.48097 16.7086
41 2 5.58919 3.62882 18.4279
42 2 3.7005 0 0
43 2 7.401 0 2.35169
44 2 7.401 2.13648 3.13559
45 2 7.35098 1.81558 5.50039
46 2 5.67806 0.783161 6.70639
47 2 5.5482 1.09072 9.00082
48 2 9.41673 3.20438 9.66292
49 2 7.26297 -0.266903 12.2188
50 2 7.26047 1.84693 12.8683
51 2 7.44333 2.27713 15.1652
52 2 5.44755 1.09356 16.4119
53 2 7.07387 1.8054 17.8428
54 2 5.55075 3.20473 0
55 2 9.25125 3.20473 2.35169
56 2 9.25125 5.34121 3.13559
57 2 9.34678 5.25484 5.43007
58 2 7.41365 4.0176 6.19139
59 2 7.52858 4.10533 8.64326
60 2 11.1547 6.13825 9.84224
61 2 9.23919 2.75357 11.9241
62 2 8.95464 4.89939 12.956
63 2 9.06639 4.50524 15.1564
64 2 7.08202 4.06107 16.5654
65 2 9.00898 5.21303 17.3874
66 3 32.305 18.424 23.4443
67 3 -0.620438 40.8098 24.161
68 3 22.4085 31.3467 23.6452
69 3 5.8207 22.1978 23.9275
ITEM: TIMESTEP
900
ITEM: NUMBER OF ATOMS
69
ITEM: BOX BOUNDS xy xz yz pp pp ff
-3.7004999999999999e+00 7.4009999999999998e+00 -3.7004999999999999e+00
0.0000000000000000e+00 6.4094540134086300e+00 0.0000000000000000e+00
0.0000000000000000e+00 4.0329638543820927e+01 0.0000000000000000e+00
ITEM: ATOMS id type xu yu zu
1 1 3.1211 0.0758901 20.4715
2 1 4.34938 0.678719 20.1989
3 1 1.73283 2.15 20.3416
4 1 2.95598 2.83798 20.2473
5 1 0.66277 4.28212 20.2465
6 1 1.84391 4.95439 20.3298
7 1 5.59832 -0.0117229 20.2033
8 1 6.84799 0.737746 20.0926
9 1 4.0292 1.9634 20.0001
10 1 3.06092 4.29494 20.265
11 1 4.30418 5.06091 20.3976
12 1 8.03262 -0.00801866 20.4091
13 1 9.32452 0.710099 20.6021
14 1 6.91154 2.10647 20.0656
15 1 7.89264 2.84687 20.1451
16 1 5.59364 4.39115 20.2701
17 1 6.79527 5.01155 20.4969
18 2 0 0 0
19 2 3.7005 0 2.35169
20 2 3.7005 2.13648 3.13559
21 2 3.8228 2.01308 5.52355
22 2 1.86514 0.791718 6.4973
23 2 1.71535 0.899875 9.00061
24 2 5.70152 3.0944 9.67856
25 2 3.55627 -0.412474 12.1495
26 2 3.85792 1.75433 13.0217
27 2 3.27099 2.42069 15.221
28 2 1.62516 1.24348 16.4314
29 2 3.90521 2.12456 17.8022
30 2 1.85025 3.20473 0
31 2 5.55075 3.20473 2.35169
32 2 5.55075 5.34121 3.13559
33 2 5.53031 5.17011 5.63252
34 2 3.58805 4.11513 6.37804
35 2 3.79421 3.9454 8.72109
36 2 7.36914 6.15814 9.71963
37 2 5.4078 2.9792 11.9423
38 2 5.35087 5.13675 12.9505
39 2 5.56669 5.382 15.4613
40 2 3.69647 4.23418 16.5029
41 2 5.44555 3.75205 18.3451
42 2 3.7005 0 0
43 2 7.401 0 2.35169
44 2 7.401 2.13648 3.13559
45 2 7.58358 2.07339 5.54926
46 2 5.73567 0.926109 6.5206
47 2 5.53953 0.911911 8.8878
48 2 9.37087 3.03331 9.73556
49 2 7.317 -0.207157 12.2495
50 2 7.33086 2.11128 12.8134
51 2 7.36512 2.30274 15.1865
52 2 5.30991 1.15392 16.3544
53 2 7.08799 2.15119 17.7108
54 2 5.55075 3.20473 0
55 2 9.25125 3.20473 2.35169
56 2 9.25125 5.34121 3.13559
57 2 9.05669 5.19743 5.5662
58 2 7.42389 4.17611 6.40069
59 2 7.75374 4.09896 8.65893
60 2 11.0084 6.12512 9.68959
61 2 9.41929 2.82045 12.0681
62 2 9.15716 4.95862 13.0553
63 2 9.14218 4.10607 15.2199
64 2 7.14002 4.14602 16.5305
65 2 8.8911 5.39721 17.1077
66 3 32.9058 18.1616 24.0708
67 3 -1.03469 41.0711 24.0154
68 3 22.2848 31.1155 23.812
69 3 5.56577 21.6739 24.0242
ITEM: TIMESTEP
1000
ITEM: NUMBER OF ATOMS
69
ITEM: BOX BOUNDS xy xz yz pp pp ff
-3.7004999999999999e+00 7.4009999999999998e+00 -3.7004999999999999e+00
0.0000000000000000e+00 6.4094540134086300e+00 0.0000000000000000e+00
0.0000000000000000e+00 4.0329638543820927e+01 0.0000000000000000e+00
ITEM: ATOMS id type xu yu zu
1 1 3.00679 0.0259772 20.4334
2 1 4.2738 0.606217 20.2366
3 1 1.92201 2.17565 20.3513
4 1 3.15113 2.79452 20.3309
5 1 0.679094 4.28544 20.2757
6 1 1.89132 5.06264 20.3548
7 1 5.50772 0.0425213 20.2624
8 1 6.78952 0.80877 20.2208
9 1 4.08165 1.96744 20.0104
10 1 3.12924 4.22557 20.538
11 1 4.23796 5.04972 20.5395
12 1 7.91996 -0.0369804 20.4752
13 1 9.21744 0.702468 20.3697
14 1 7.08336 2.10824 19.7536
15 1 8.08911 2.93687 20.2936
16 1 5.56929 4.60364 20.1231
17 1 6.89513 5.05756 20.2144
18 2 0 0 0
19 2 3.7005 0 2.35169
20 2 3.7005 2.13648 3.13559
21 2 3.74449 2.10348 5.39505
22 2 1.99863 1.06915 6.49705
23 2 1.79792 0.733984 8.89227
24 2 5.5286 2.91569 9.53138
25 2 3.78628 -0.353196 12.1025
26 2 3.83978 1.83776 13.0495
27 2 3.46063 2.17096 15.4381
28 2 1.6677 0.968745 16.3732
29 2 3.84935 2.11244 17.8599
30 2 1.85025 3.20473 0
31 2 5.55075 3.20473 2.35169
32 2 5.55075 5.34121 3.13559
33 2 5.49801 5.2355 5.621
34 2 3.63264 4.16654 6.41668
35 2 3.66412 4.10453 8.75051
36 2 7.38047 6.21873 9.79191
37 2 5.5842 3.10162 12.0262
38 2 5.41959 5.19773 12.7958
39 2 5.29511 5.38407 15.1345
40 2 3.74195 4.22691 16.5558
41 2 5.4086 3.86321 18.2418
42 2 3.7005 0 0
43 2 7.401 0 2.35169
44 2 7.401 2.13648 3.13559
45 2 7.61287 2.14435 5.5528
46 2 5.63044 1.1239 6.20367
47 2 5.50315 0.728179 8.71868
48 2 9.39981 2.78002 9.80405
49 2 7.21668 -0.0798005 11.9807
50 2 7.44606 2.0454 12.8699
51 2 7.29828 2.23269 15.4186
52 2 5.28954 1.21881 16.1818
53 2 7.16113 2.29777 17.7871
54 2 5.55075 3.20473 0
55 2 9.25125 3.20473 2.35169
56 2 9.25125 5.34121 3.13559
57 2 9.26959 5.35999 5.51627
58 2 7.27286 4.16812 6.63294
59 2 7.46831 4.12316 8.95009
60 2 10.9554 6.11874 9.75647
61 2 9.4432 3.03614 12.0766
62 2 9.3955 5.14144 12.9992
63 2 9.07539 4.01674 15.0655
64 2 7.0487 4.40993 16.5504
65 2 9.12182 5.58022 16.9872
66 3 33.1781 17.9291 24.4263
67 3 -1.40968 41.2862 23.668
68 3 22.4784 30.6634 23.9648
69 3 5.30294 21.4325 23.9773
ITEM: TIMESTEP
1100
ITEM: NUMBER OF ATOMS
69
ITEM: BOX BOUNDS xy xz yz pp pp ff
-3.7004999999999999e+00 7.4009999999999998e+00 -3.7004999999999999e+00
0.0000000000000000e+00 6.4094540134086300e+00 0.0000000000000000e+00
0.0000000000000000e+00 4.0329638543820927e+01 0.0000000000000000e+00
ITEM: ATOMS id type xu yu zu
1 1 3.16395 0.0722597 20.2073
2 1 4.34306 0.800629 20.2184
3 1 1.9109 2.21234 20.5175
4 1 3.09729 2.95779 20.3916
5 1 0.509152 4.36658 20.3661
6 1 1.84145 5.06227 20.3839
7 1 5.49998 0.0208322 20.2866
8 1 6.79384 0.706412 20.1776
9 1 4.1058 2.18902 20.1099
10 1 3.07786 4.37108 20.3483
11 1 4.26299 5.14359 20.4055
12 1 8.06838 0.124851 20.356
13 1 9.41184 0.752606 20.4214
14 1 7.00905 2.02349 20.0391
15 1 8.07847 2.95281 20.1605
16 1 5.56558 4.62184 20.1558
17 1 6.73569 5.08286 20.2379
18 2 0 0 0
19 2 3.7005 0 2.35169
20 2 3.7005 2.13648 3.13559
21 2 3.67881 2.18826 5.51504
22 2 1.96375 1.1019 6.46487
23 2 1.87378 0.622282 8.6833
24 2 5.39288 2.84475 9.59468
25 2 3.86065 -0.0954111 12.1659
26 2 3.72144 1.98431 12.9895
27 2 3.39526 2.03493 15.5051
28 2 1.72134 0.756886 16.4425
29 2 3.81814 2.09808 17.835
30 2 1.85025 3.20473 0
31 2 5.55075 3.20473 2.35169
32 2 5.55075 5.34121 3.13559
33 2 5.51989 5.45978 5.49694
34 2 3.71843 4.31191 6.40808
35 2 3.58435 4.04476 8.83328
36 2 7.41003 6.21072 9.77607
37 2 5.67676 3.0525 11.9984
38 2 5.60049 5.30923 12.7749
39 2 5.11885 5.29766 15.1294
40 2 3.7359 4.34154 16.5747
41 2 5.53284 3.84046 18.1928
42 2 3.7005 0 0
43 2 7.401 0 2.35169
44 2 7.401 2.13648 3.13559
45 2 7.43165 2.17278 5.51142
46 2 5.57358 1.128 6.22105
47 2 5.48367 0.801495 8.481
48 2 9.22256 2.89088 9.60847
49 2 7.43838 0.0328342 11.8898
50 2 7.54342 2.00971 13.069
51 2 7.4412 2.29335 15.4718
52 2 5.59474 1.18881 16.2184
53 2 7.02699 2.21514 17.736
54 2 5.55075 3.20473 0
55 2 9.25125 3.20473 2.35169
56 2 9.25125 5.34121 3.13559
57 2 9.31889 5.37567 5.50473
58 2 7.41391 4.2803 6.56592
59 2 7.22911 3.91495 9.1936
60 2 11.0881 6.22241 9.54674
61 2 9.40352 3.024 11.9203
62 2 9.36223 5.18627 13.0172
63 2 9.00792 4.15554 15.2716
64 2 6.98784 4.58733 16.4441
65 2 9.2899 5.47348 17.0123
66 3 33.2404 17.4107 24.4156
67 3 -2.00567 41.4124 23.1813
68 3 23.0335 30.4015 24.0427
69 3 5.12165 21.4254 23.8497
ITEM: TIMESTEP
1200
ITEM: NUMBER OF ATOMS
69
ITEM: BOX BOUNDS xy xz yz pp pp ff
-3.7004999999999999e+00 7.4009999999999998e+00 -3.7004999999999999e+00
0.0000000000000000e+00 6.4094540134086300e+00 0.0000000000000000e+00
0.0000000000000000e+00 4.0329638543820927e+01 0.0000000000000000e+00
ITEM: ATOMS id type xu yu zu
1 1 3.02582 0.189976 20.5088
2 1 4.2843 0.843635 20.2303
3 1 1.75965 2.31043 20.3327
4 1 2.99265 3.05191 20.2834
5 1 0.647249 4.46663 20.2995
6 1 1.87311 5.19886 20.3437
7 1 5.67518 0.183483 20.2249
8 1 6.85083 0.861259 20.2136
9 1 4.0332 2.13882 19.8582
10 1 3.10815 4.56172 20.3011
11 1 4.37795 5.16739 20.3084
12 1 7.98438 0.152175 20.3498
13 1 9.27812 0.86763 20.453
14 1 6.9283 2.13666 20.079
15 1 7.93802 3.0745 20.4678
16 1 5.63339 4.6235 20.0784
17 1 6.81684 5.18906 20.4506
18 2 0 0 0
19 2 3.7005 0 2.35169
20 2 3.7005 2.13648 3.13559
21 2 3.71824 2.2916 5.55584
22 2 1.68783 1.10796 6.25492
23 2 1.95142 0.899828 8.66639
24 2 5.23323 2.81523 9.83076
25 2 3.82166 0.0549767 12.1299
26 2 3.79293 2.22665 12.9853
27 2 3.34517 2.20113 15.4198
28 2 1.76081 0.929923 16.6474
29 2 3.81068 2.15402 17.799
30 2 1.85025 3.20473 0
31 2 5.55075 3.20473 2.35169
32 2 5.55075 5.34121 3.13559
33 2 5.71296 5.42872 5.45652
34 2 3.80227 4.40206 6.42852
35 2 3.59137 4.04064 8.72177
36 2 7.51751 6.10334 9.67306
37 2 5.63793 2.9994 12.0893
38 2 5.70526 5.26619 12.8134
39 2 5.21694 5.24051 15.1664
40 2 3.72159 4.02321 16.6046
41 2 5.53379 3.69383 18.3681
42 2 3.7005 0 0
43 2 7.401 0 2.35169
44 2 7.401 2.13648 3.13559
45 2 7.33957 2.26028 5.51609
46 2 5.50111 1.03957 6.33393
47 2 5.53217 0.882929 8.67326
48 2 9.04078 2.91782 9.43598
49 2 7.60266 -0.116199 12.0519
50 2 7.49585 2.08546 13.0252
51 2 7.77458 2.37383 15.4028
52 2 5.608 1.06508 16.4574
53 2 7.19178 2.04874 17.8741
54 2 5.55075 3.20473 0
55 2 9.25125 3.20473 2.35169
56 2 9.25125 5.34121 3.13559
57 2 9.21728 5.28876 5.49775
58 2 7.46457 4.3842 6.44121
59 2 7.21287 4.01586 8.89122
60 2 11.0913 6.27129 9.31575
61 2 9.22809 3.12228 12.0071
62 2 9.34703 5.20295 12.9439
63 2 9.15626 4.25056 15.1343
64 2 7.04758 4.48062 16.4925
65 2 9.14785 5.48626 17.3545
66 3 33.3985 16.8628 24.2979
67 3 -2.35607 41.4956 22.6682
68 3 23.266 30.3565 23.9254
69 3 4.94282 21.2474 23.5514
ITEM: TIMESTEP
1300
ITEM: NUMBER OF ATOMS
69
ITEM: BOX BOUNDS xy xz yz pp pp ff
-3.7004999999999999e+00 7.4009999999999998e+00 -3.7004999999999999e+00
0.0000000000000000e+00 6.4094540134086300e+00 0.0000000000000000e+00
0.0000000000000000e+00 4.0329638543820927e+01 0.0000000000000000e+00
ITEM: ATOMS id type xu yu zu
1 1 2.96329 0.321575 20.3901
2 1 4.22615 0.900154 20.1265
3 1 1.89139 2.41652 20.4217
4 1 2.98275 3.04001 20.0428
5 1 0.652563 4.5091 20.3937
6 1 1.76619 5.25846 20.3312
7 1 5.32202 0.270738 20.3937
8 1 6.7316 0.99862 20.3984
9 1 4.1122 2.20991 19.9306
10 1 2.991 4.48073 20.2005
11 1 4.25716 5.20412 20.232
12 1 7.95371 0.265321 20.533
13 1 9.18533 0.990091 20.4832
14 1 7.09976 2.31219 20.125
15 1 8.13277 3.21069 20.2364