ITEM: TIMESTEP
0
ITEM: NUMBER OF ATOMS
70
ITEM: BOX BOUNDS xy xz yz pp pp ff
-3.7004999999999999e+00 7.4009999999999998e+00 -3.7004999999999999e+00
0.0000000000000000e+00 6.4094540134086300e+00 0.0000000000000000e+00
0.0000000000000000e+00 4.0329638543820927e+01 0.0000000000000000e+00
ITEM: ATOMS id type xu yu zu
1 1 -0.240588 0.102018 20.696
2 1 1.00813 0.858471 20.619
3 1 -1.44997 2.20476 20.5245
4 1 -0.145413 2.91776 20.4891
5 1 -2.62739 4.33799 20.6067
6 1 -1.39406 5.07412 20.4328
7 1 2.23372 0.100089 20.2986
8 1 3.49216 0.76497 20.414
9 1 1.04517 2.27166 20.6585
10 1 2.26939 2.90737 20.426
11 1 -0.197858 4.36573 20.0351
12 1 1.07474 5.03816 19.8374
13 1 4.74573 0.072923 20.0812
14 1 5.9629 0.782798 20.3782
15 1 3.50959 2.18025 20.5423
16 1 4.72398 2.94141 20.6581
17 1 2.38693 4.32011 20.066
18 1 3.52904 5.05323 20.4801
19 2 0 0 0
20 2 3.7005 0 2.35169
21 2 3.7005 2.13648 3.13559
22 2 3.69368 2.10001 5.47448
23 2 1.83245 1.04725 6.33673
24 2 1.8176 1.07868 8.6755
25 2 5.57485 3.17421 9.49696
26 2 3.71882 0.0292758 11.8777
27 2 3.74085 2.16525 12.7539
28 2 3.7108 2.15074 15.1043
29 2 1.84292 1.08765 15.9598
30 2 1.17725 0.523611 18.1519
31 2 1.85025 3.20473 0
32 2 5.55075 3.20473 2.35169
33 2 5.55075 5.34121 3.13559
34 2 5.54898 5.31844 5.48026
35 2 3.66896 4.23482 6.28169
36 2 3.75612 4.252 8.63508
37 2 7.31504 6.37654 9.53084
38 2 5.53563 3.26219 11.8235
39 2 5.50707 5.38044 12.7022
40 2 5.57698 5.41365 15.1005
41 2 3.80805 4.30063 15.9852
42 2 3.85044 5.00315 18.2454
43 2 3.7005 0 0
44 2 7.401 0 2.35169
45 2 7.401 2.13648 3.13559
46 2 7.41023 2.09581 5.48536
47 2 5.54822 1.05821 6.32474
48 2 5.48047 0.991602 8.69819
49 2 9.26363 3.22986 9.47853
50 2 7.36721 0.0133496 11.8032
51 2 7.38067 2.19251 12.5684
52 2 7.40919 2.22298 14.9364
53 2 5.54066 1.09416 15.9284
54 2 5.86886 1.14331 18.2777
55 2 5.55075 3.20473 0
56 2 9.25125 3.20473 2.35169
57 2 9.25125 5.34121 3.13559
58 2 9.22479 5.325 5.44873
59 2 7.41004 4.24835 6.34306
60 2 7.40465 4.28244 8.65751
61 2 11.0863 6.40213 9.49257
62 2 9.30847 3.19677 11.8268
63 2 9.25798 5.3361 12.6518
64 2 9.3875 5.373 15.0259
65 2 7.46805 4.35705 15.875
66 2 7.89649 3.58252 18.1417
67 3 1.36185 2.0646 24.2742
68 3 -0.679975 3.79447 23.8672
69 3 5.66185 1.57402 24.4197
70 3 3.64484 3.99755 24.9235
ITEM: TIMESTEP
100
ITEM: NUMBER OF ATOMS
70
ITEM: BOX BOUNDS xy xz yz pp pp ff
-3.7004999999999999e+00 7.4009999999999998e+00 -3.7004999999999999e+00
0.0000000000000000e+00 6.4094540134086300e+00 0.0000000000000000e+00
0.0000000000000000e+00 4.0329638543820927e+01 0.0000000000000000e+00
ITEM: ATOMS id type xu yu zu
1 1 -0.154699 0.137149 20.7181
2 1 1.08722 0.83018 20.813
3 1 -1.39649 2.23966 20.725
4 1 -0.213362 2.89557 20.7193
5 1 -2.59614 4.37488 20.488
6 1 -1.45151 5.12543 20.1971
7 1 2.32083 0.136393 20.2765
8 1 3.55513 0.84916 20.0518
9 1 1.07089 2.25013 20.7339
10 1 2.32074 2.97765 20.5562
11 1 -0.208029 4.34276 20.0118
12 1 1.07204 5.03646 19.8778
13 1 4.82075 0.131524 20.0112
14 1 5.98798 0.870342 20.5627
15 1 3.51571 2.2473 20.2621
16 1 4.82018 2.97097 20.46
17 1 2.32301 4.34538 20.325
18 1 3.59233 5.10269 20.4542
19 2 0 0 0
20 2 3.7005 0 2.35169
21 2 3.7005 2.13648 3.13559
22 2 3.657 2.09809 5.46657
23 2 1.81546 1.0497 6.35351
24 2 1.85234 1.0607 8.65836
25 2 5.56183 3.19711 9.50109
26 2 3.68424 0.0250367 11.8861
27 2 3.71084 2.13414 12.7494
28 2 3.68809 2.14831 15.159
29 2 1.8315 1.07104 15.9187
30 2 0.925253 0.69898 17.9737
31 2 1.85025 3.20473 0
32 2 5.55075 3.20473 2.35169
33 2 5.55075 5.34121 3.13559
34 2 5.5366 5.30741 5.48098
35 2 3.71648 4.27603 6.34412
36 2 3.70442 4.27862 8.66722
37 2 7.39888 6.42952 9.55184
38 2 5.54792 3.23988 11.8424
39 2 5.57851 5.39639 12.7207
40 2 5.60287 5.31808 15.0692
41 2 3.6907 4.20234 16.0237
42 2 3.47293 5.04584 18.0102
43 2 3.7005 0 0
44 2 7.401 0 2.35169
45 2 7.401 2.13648 3.13559
46 2 7.35262 2.13513 5.49839
47 2 5.52567 1.02574 6.3527
48 2 5.54076 1.08353 8.63148
49 2 9.27456 3.19244 9.49058
50 2 7.43578 0.0446863 11.8512
51 2 7.44787 2.1695 12.6159
52 2 7.37086 2.15357 14.9134
53 2 5.51408 1.10069 15.9274
54 2 6.21724 0.964784 18.0638
55 2 5.55075 3.20473 0
56 2 9.25125 3.20473 2.35169
57 2 9.25125 5.34121 3.13559
58 2 9.22845 5.29722 5.5215
59 2 7.34217 4.24046 6.34875
60 2 7.42341 4.26493 8.69079
61 2 11.0806 6.41388 9.47257
62 2 9.29976 3.22324 11.8345
63 2 9.26299 5.36292 12.7266
64 2 9.28063 5.35016 15.0956
65 2 7.45621 4.29909 15.9865
66 2 7.96173 3.60258 18.1186
67 3 1.69106 1.69643 24.3024
68 3 -0.799304 4.15538 23.6616
69 3 5.7078 1.65742 24.5782
70 3 3.7149 3.77282 24.9532
ITEM: TIMESTEP
200
ITEM: NUMBER OF ATOMS
70
ITEM: BOX BOUNDS xy xz yz pp pp ff
-3.7004999999999999e+00 7.4009999999999998e+00 -3.7004999999999999e+00
0.0000000000000000e+00 6.4094540134086300e+00 0.0000000000000000e+00
0.0000000000000000e+00 4.0329638543820927e+01 0.0000000000000000e+00
ITEM: ATOMS id type xu yu zu
1 1 -0.0642597 0.0959947 20.6875
2 1 1.1565 0.738361 20.6458
3 1 -1.3599 2.2604 20.4943
4 1 -0.154839 2.88588 20.5423
5 1 -2.58785 4.41634 20.3355
6 1 -1.34556 5.08912 20.2548
7 1 2.36207 0.125036 20.3797
8 1 3.6101 0.861292 20.2193
9 1 1.14553 2.14212 20.6129
10 1 2.33244 2.98185 20.424
11 1 -0.0876074 4.36443 20.1664
12 1 1.1789 5.1259 20.1942
13 1 4.8684 0.146833 20.072
14 1 6.10361 0.851352 20.4293
15 1 3.55452 2.2749 20.3215
16 1 4.85248 2.97886 20.3287
17 1 2.2876 4.3461 20.4974
18 1 3.59595 5.03981 20.638
19 2 0 0 0
20 2 3.7005 0 2.35169
21 2 3.7005 2.13648 3.13559
22 2 3.67059 2.1394 5.51818
23 2 1.80843 1.05641 6.3076
24 2 1.87474 1.03884 8.67643
25 2 5.53788 3.25335 9.52815
26 2 3.7408 0.0225365 11.8621
27 2 3.70876 2.17423 12.7347
28 2 3.61764 2.11969 15.0867
29 2 1.83437 0.955534 15.7279
30 2 1.18648 1.18255 17.8437
31 2 1.85025 3.20473 0
32 2 5.55075 3.20473 2.35169
33 2 5.55075 5.34121 3.13559
34 2 5.52136 5.36157 5.48646
35 2 3.68173 4.23061 6.36319
36 2 3.68097 4.28819 8.6875
37 2 7.47472 6.43074 9.52364
38 2 5.5544 3.21546 11.8534
39 2 5.58283 5.31724 12.7192
40 2 5.52667 5.22234 15.0772
41 2 3.68701 4.24741 15.8082
42 2 3.01033 5.06358 17.8409
43 2 3.7005 0 0
44 2 7.401 0 2.35169
45 2 7.401 2.13648 3.13559
46 2 7.34505 2.11197 5.48708
47 2 5.48141 1.03126 6.2986
48 2 5.57485 1.12075 8.67123
49 2 9.27325 3.18104 9.52961
50 2 7.43867 -0.00466847 11.8155
51 2 7.43411 2.1792 12.5923
52 2 7.35062 2.16954 14.8632
53 2 5.45195 1.08893 15.8046
54 2 6.16103 0.759363 18.0041
55 2 5.55075 3.20473 0
56 2 9.25125 3.20473 2.35169
57 2 9.25125 5.34121 3.13559
58 2 9.23172 5.29241 5.51417
59 2 7.37335 4.26429 6.36583
60 2 7.40359 4.28943 8.70821
61 2 11.1083 6.42754 9.5286
62 2 9.30394 3.27203 11.821
63 2 9.2927 5.38009 12.6967
64 2 9.14372 5.28984 15.022
65 2 7.33719 4.2391 15.9776
66 2 8.06595 3.65065 18.1805
67 3 1.77152 1.58906 24.1838
68 3 -0.811273 4.40689 23.5642
69 3 5.97281 1.60177 24.5196
70 3 3.64934 3.60664 24.7986
ITEM: TIMESTEP
300
ITEM: NUMBER OF ATOMS
70
ITEM: BOX BOUNDS xy xz yz pp pp ff
-3.7004999999999999e+00 7.4009999999999998e+00 -3.7004999999999999e+00
0.0000000000000000e+00 6.4094540134086300e+00 0.0000000000000000e+00
0.0000000000000000e+00 4.0329638543820927e+01 0.0000000000000000e+00
ITEM: ATOMS id type xu yu zu
1 1 -0.00852243 0.120237 20.4953
2 1 1.15908 0.839933 20.4528
3 1 -1.30033 2.25822 20.305
4 1 -0.0574338 2.89682 20.3613
5 1 -2.51032 4.35813 20.4193
6 1 -1.28705 5.0777 20.285
7 1 2.33871 0.0948888 20.4113
8 1 3.62645 0.765729 20.2852
9 1 1.18951 2.21716 20.6493
10 1 2.42132 2.90439 20.5978
11 1 0.000658185 4.45166 20.2083
12 1 1.21785 5.08691 20.5499
13 1 4.86632 0.047323 20.3474
14 1 6.15226 0.837885 20.1724
15 1 3.66763 2.17791 20.3537
16 1 4.91484 2.8956 20.2814
17 1 2.3935 4.36984 20.5716
18 1 3.6575 5.12413 20.4967
19 2 0 0 0
20 2 3.7005 0 2.35169
21 2 3.7005 2.13648 3.13559
22 2 3.66443 2.12812 5.47084
23 2 1.81183 1.08414 6.34248
24 2 1.89489 1.05298 8.66251
25 2 5.54553 3.2614 9.50296
26 2 3.73545 0.0234028 11.833
27 2 3.69437 2.13929 12.6318
28 2 3.57648 2.1079 14.95
29 2 1.74272 1.00707 15.6052
30 2 1.3467 1.53089 17.8104
31 2 1.85025 3.20473 0
32 2 5.55075 3.20473 2.35169
33 2 5.55075 5.34121 3.13559
34 2 5.52266 5.32393 5.49781
35 2 3.67214 4.27918 6.34303
36 2 3.68471 4.29814 8.67661
37 2 7.44667 6.42528 9.49917
38 2 5.5603 3.20767 11.8067
39 2 5.59708 5.3213 12.6426
40 2 5.50828 5.25163 14.9774
41 2 3.59141 4.27441 15.656
42 2 2.64787 4.81678 17.5426
43 2 3.7005 0 0
44 2 7.401 0 2.35169
45 2 7.401 2.13648 3.13559
46 2 7.35786 2.12721 5.48146
47 2 5.52687 1.05483 6.33918
48 2 5.59262 1.10831 8.66183
49 2 9.23955 3.20301 9.47636
50 2 7.46251 -0.00583097 11.8272
51 2 7.42661 2.14329 12.518
52 2 7.30241 2.14539 14.8446
53 2 5.44153 1.04706 15.7314
54 2 6.12411 0.709201 17.9296
55 2 5.55075 3.20473 0
56 2 9.25125 3.20473 2.35169
57 2 9.25125 5.34121 3.13559
58 2 9.22428 5.31745 5.45803
59 2 7.37755 4.26782 6.3472
60 2 7.41924 4.29815 8.67465
61 2 11.1355 6.43131 9.49169
62 2 9.2786 3.2391 11.813
63 2 9.26649 5.37149 12.6304
64 2 9.11602 5.30404 14.9406
65 2 7.24794 4.19591 15.9223
66 2 8.22654 3.74049 17.9689
67 3 1.69627 1.45298 23.9021
68 3 -0.980126 4.3894 23.679
69 3 6.3249 1.68122 24.2465
70 3 3.74185 3.64195 24.4942
ITEM: TIMESTEP
400
ITEM: NUMBER OF ATOMS
70
ITEM: BOX BOUNDS xy xz yz pp pp ff
-3.7004999999999999e+00 7.4009999999999998e+00 -3.7004999999999999e+00
0.0000000000000000e+00 6.4094540134086300e+00 0.0000000000000000e+00
0.0000000000000000e+00 4.0329638543820927e+01 0.0000000000000000e+00
ITEM: ATOMS id type xu yu zu
1 1 -0.0546923 0.128974 20.3857
2 1 1.24345 0.8008 20.4702
3 1 -1.2214 2.20129 20.4364
4 1 -0.0176254 2.89112 20.5291
5 1 -2.47864 4.40455 20.1976
6 1 -1.24198 5.07179 20.2332
7 1 2.43297 0.102846 20.3399
8 1 3.68038 0.829553 20.4832
9 1 1.20673 2.19862 20.465
10 1 2.39653 2.98514 20.414
11 1 -0.00790697 4.33319 20.3516
12 1 1.20564 5.09704 20.4154
13 1 4.96322 0.0853918 20.4925
14 1 6.11177 0.801039 20.5628
15 1 3.69053 2.25127 20.3986
16 1 4.93891 2.93539 20.3341
17 1 2.41369 4.43869 20.4541
18 1 3.68831 5.09762 20.2802
19 2 0 0 0
20 2 3.7005 0 2.35169
21 2 3.7005 2.13648 3.13559
22 2 3.68672 2.13209 5.47377
23 2 1.84274 1.05582 6.31375
24 2 1.87368 1.10279 8.61836
25 2 5.56904 3.2125 9.39119
26 2 3.70706 -0.0176642 11.7332
27 2 3.69906 2.12597 12.5052
28 2 3.58972 2.08933 14.8484
29 2 1.6856 1.12602 15.6237
30 2 1.29369 1.5163 17.722
31 2 1.85025 3.20473 0
32 2 5.55075 3.20473 2.35169
33 2 5.55075 5.34121 3.13559
34 2 5.53554 5.34162 5.48242
35 2 3.67355 4.28474 6.28478
36 2 3.70255 4.29656 8.60221
37 2 7.42565 6.43385 9.43759
38 2 5.5591 3.20572 11.719
39 2 5.58769 5.33878 12.5589
40 2 5.48143 5.36944 14.8876
41 2 3.63095 4.18738 15.4992
42 2 2.66463 4.71313 17.4305
43 2 3.7005 0 0
44 2 7.401 0 2.35169
45 2 7.401 2.13648 3.13559
46 2 7.39132 2.15079 5.48424
47 2 5.54352 1.07578 6.32146
48 2 5.57083 1.08272 8.62936
49 2 9.26835 3.23437 9.41321
50 2 7.42023 -0.0116632 11.7609
51 2 7.39565 2.12673 12.5549
52 2 7.20309 2.12842 14.7603
53 2 5.43006 1.11874 15.6649
54 2 6.39762 0.608958 17.6358
55 2 5.55075 3.20473 0
56 2 9.25125 3.20473 2.35169
57 2 9.25125 5.34121 3.13559
58 2 9.22427 5.37207 5.47619
59 2 7.37964 4.27206 6.28303
60 2 7.40579 4.29559 8.59171
61 2 11.1293 6.42092 9.43737
62 2 9.24307 3.20554 11.718
63 2 9.258 5.32715 12.5854
64 2 9.05788 5.32263 14.9348
65 2 7.21235 4.19396 15.7741
66 2 8.0609 3.81121 17.9023
67 3 1.76433 1.25421 23.5762
68 3 -0.948699 4.57034 23.5963
69 3 6.39182 1.54719 23.9595
70 3 3.72661 3.75734 24.2157
ITEM: TIMESTEP
500
ITEM: NUMBER OF ATOMS
70
ITEM: BOX BOUNDS xy xz yz pp pp ff
-3.7004999999999999e+00 7.4009999999999998e+00 -3.7004999999999999e+00
0.0000000000000000e+00 6.4094540134086300e+00 0.0000000000000000e+00
0.0000000000000000e+00 4.0329638543820927e+01 0.0000000000000000e+00
ITEM: ATOMS id type xu yu zu
1 1 -0.0303458 0.103466 20.5483
2 1 1.21749 0.823902 20.5493
3 1 -1.22822 2.19887 20.5606
4 1 -0.0124795 3.01335 20.5557
5 1 -2.4743 4.37818 20.229
6 1 -1.24999 5.09764 20.3223
7 1 2.4708 0.125248 20.3402
8 1 3.70652 0.796253 20.3203
9 1 1.21549 2.26272 20.4957
10 1 2.40896 2.96461 20.3015
11 1 -0.00609378 4.3642 20.392
12 1 1.25167 5.08089 20.3655
13 1 4.97943 0.0933604 20.4656
14 1 6.19764 0.797144 20.5155
15 1 3.68359 2.22002 20.3158
16 1 4.94019 2.95179 20.344
17 1 2.43039 4.35931 20.2633
18 1 3.64976 5.06055 20.359
19 2 0 0 0
20 2 3.7005 0 2.35169
21 2 3.7005 2.13648 3.13559
22 2 3.70324 2.15354 5.45351
23 2 1.85763 1.07875 6.25345
24 2 1.83824 1.09984 8.57962
25 2 5.56516 3.2114 9.33305
26 2 3.72333 -0.0386085 11.665
27 2 3.68222 2.11181 12.4272
28 2 3.57672 2.07062 14.7475
29 2 1.65791 1.16758 15.4824
30 2 1.16689 1.44744 17.657
31 2 1.85025 3.20473 0
32 2 5.55075 3.20473 2.35169
33 2 5.55075 5.34121 3.13559
34 2 5.5351 5.35764 5.4157
35 2 3.68612 4.27843 6.23931
36 2 3.7391 4.29235 8.53658
37 2 7.38583 6.41253 9.34585
38 2 5.54829 3.20739 11.6547
39 2 5.51596 5.3464 12.4988
40 2 5.44266 5.44181 14.8483
41 2 3.67929 4.23147 15.4195
42 2 2.86225 4.68508 17.4188
43 2 3.7005 0 0
44 2 7.401 0 2.35169
45 2 7.401 2.13648 3.13559
46 2 7.4245 2.13072 5.43315
47 2 5.55595 1.10688 6.25554
48 2 5.56449 1.05122 8.57258
49 2 9.26849 3.25109 9.35914
50 2 7.35879 -0.026503 11.7061
51 2 7.36054 2.12689 12.4302
52 2 7.23452 2.22475 14.67
53 2 5.4467 1.12988 15.6016
54 2 6.52574 0.523336 17.6066
55 2 5.55075 3.20473 0
56 2 9.25125 3.20473 2.35169
57 2 9.25125 5.34121 3.13559
58 2 9.2496 5.36687 5.44574
59 2 7.40608 4.29659 6.2313
60 2 7.41081 4.29054 8.53459
61 2 11.1154 6.41589 9.39816
62 2 9.23219 3.19664 11.676
63 2 9.23009 5.29858 12.5735
64 2 9.10486 5.32553 14.9433
65 2 7.172 4.23527 15.6108
66 2 7.91253 3.77664 17.7342
67 3 1.95394 1.21374 23.386
68 3 -0.884441 4.65834 23.4783
69 3 6.18263 1.50367 23.7106
70 3 3.79077 3.73066 23.845
ITEM: TIMESTEP
600
ITEM: NUMBER OF ATOMS
70
ITEM: BOX BOUNDS xy xz yz pp pp ff
-3.7004999999999999e+00 7.4009999999999998e+00 -3.7004999999999999e+00
0.0000000000000000e+00 6.4094540134086300e+00 0.0000000000000000e+00
0.0000000000000000e+00 4.0329638543820927e+01 0.0000000000000000e+00
ITEM: ATOMS id type xu yu zu
1 1 -0.0114897 0.144199 20.4547
2 1 1.19882 0.813655 20.4081
3 1 -1.25072 2.22899 20.3208
4 1 0.0226729 2.99106 20.4286
5 1 -2.45454 4.3705 20.4904
6 1 -1.20859 5.06456 20.472
7 1 2.43898 0.0940567 20.399
8 1 3.65837 0.800414 20.2494
9 1 1.23266 2.22916 20.476
10 1 2.47368 2.96091 20.4009
11 1 0.0264467 4.39206 20.457
12 1 1.23438 5.10318 20.4762
13 1 4.89951 0.0792682 20.2885
14 1 6.16287 0.821151 20.4099
15 1 3.71299 2.23226 20.2267
16 1 4.91803 2.96772 20.3014
17 1 2.44993 4.43469 20.514
18 1 3.68647 5.11659 20.4702
19 2 0 0 0
20 2 3.7005 0 2.35169
21 2 3.7005 2.13648 3.13559
22 2 3.71112 2.15032 5.40894
23 2 1.8653 1.09435 6.25872
24 2 1.84296 1.08283 8.54659
25 2 5.55692 3.20064 9.30469
26 2 3.66284 -0.0367476 11.6279
27 2 3.66394 2.07353 12.4086
28 2 3.61719 2.12664 14.722
29 2 1.66454 1.20101 15.4032
30 2 1.19793 1.42534 17.6458
31 2 1.85025 3.20473 0
32 2 5.55075 3.20473 2.35169
33 2 5.55075 5.34121 3.13559
34 2 5.56922 5.35986 5.4219
35 2 3.72567 4.30494 6.23361
36 2 3.70555 4.28542 8.53962
37 2 7.38866 6.41229 9.31883
38 2 5.47677 3.2214 11.606
39 2 5.51419 5.3733 12.4447
40 2 5.42858 5.44351 14.7494
41 2 3.63646 4.2395 15.4501
42 2 2.86532 4.52772 17.5456
43 2 3.7005 0 0
44 2 7.401 0 2.35169
45 2 7.401 2.13648 3.13559
46 2 7.41336 2.16551 5.41396
47 2 5.57399 1.07932 6.23366
48 2 5.54034 1.06638 8.52071
49 2 9.26435 3.21855 9.32518
50 2 7.32727 -0.032092 11.6613
51 2 7.34851 2.13516 12.3219
52 2 7.21198 2.20592 14.5526
53 2 5.51909 1.09099 15.5878
54 2 6.34636 0.515514 17.618
55 2 5.55075 3.20473 0
56 2 9.25125 3.20473 2.35169
57 2 9.25125 5.34121 3.13559
58 2 9.26754 5.36263 5.40127
59 2 7.41173 4.29058 6.2195
60 2 7.41752 4.28009 8.52285
61 2 11.0874 6.40263 9.337
62 2 9.22959 3.19373 11.6394
63 2 9.18325 5.31995 12.5729
64 2 9.17639 5.3563 14.8767
65 2 7.24903 4.34585 15.5023
66 2 8.0758 3.73726 17.5173
67 3 1.96629 1.25694 23.4061
68 3 -0.681901 4.58594 23.4482
69 3 6.01878 1.63585 23.5097
70 3 3.83093 3.61985 23.4513
ITEM: TIMESTEP
700
ITEM: NUMBER OF ATOMS
70
ITEM: BOX BOUNDS xy xz yz pp pp ff
-3.7004999999999999e+00 7.4009999999999998e+00 -3.7004999999999999e+00
0.0000000000000000e+00 6.4094540134086300e+00 0.0000000000000000e+00
0.0000000000000000e+00 4.0329638543820927e+01 0.0000000000000000e+00
ITEM: ATOMS id type xu yu zu
1 1 0.00649025 0.131373 20.4862
2 1 1.24558 0.821213 20.4173
3 1 -1.23096 2.24158 20.3052
4 1 -0.00791973 2.96447 20.3367
5 1 -2.48816 4.39357 20.3466
6 1 -1.19533 5.09651 20.2946
7 1 2.47276 0.150642 20.3592
8 1 3.73079 0.823672 20.3952
9 1 1.19504 2.24645 20.3555
10 1 2.43783 2.98812 20.4209
11 1 -0.0250694 4.35524 20.4363
12 1 1.18772 5.09238 20.3919
13 1 4.93896 0.108167 20.4641
14 1 6.13616 0.852763 20.4791
15 1 3.66831 2.29664 20.3878
16 1 4.92966 2.98512 20.3431
17 1 2.44729 4.38236 20.5142
18 1 3.6547 5.08653 20.5098
19 2 0 0 0
20 2 3.7005 0 2.35169
21 2 3.7005 2.13648 3.13559
22 2 3.7223 2.15712 5.43087
23 2 1.86758 1.09515 6.23691
24 2 1.84723 1.04872 8.54525
25 2 5.52759 3.21708 9.29399
26 2 3.63465 -0.0154276 11.6477
27 2 3.63517 2.1356 12.4818
28 2 3.67184 2.1302 14.8126
29 2 1.70645 1.1254 15.3935
30 2 1.17266 1.38978 17.5559
31 2 1.85025 3.20473 0
32 2 5.55075 3.20473 2.35169
33 2 5.55075 5.34121 3.13559
34 2 5.58487 5.38392 5.44514
35 2 3.73087 4.28338 6.22837
36 2 3.67427 4.27013 8.52388
37 2 7.40212 6.40432 9.34369
38 2 5.45849 3.21415 11.6161
39 2 5.45267 5.34497 12.429
40 2 5.41647 5.40154 14.7563
41 2 3.64256 4.25115 15.557
42 2 2.93351 4.53305 17.7325
43 2 3.7005 0 0
44 2 7.401 0 2.35169
45 2 7.401 2.13648 3.13559
46 2 7.41514 2.15416 5.43854
47 2 5.55532 1.07412 6.21109
48 2 5.53422 1.07405 8.51991
49 2 9.23846 3.18356 9.33786
50 2 7.31867 -0.0060472 11.6199
51 2 7.30295 2.14722 12.3452
52 2 7.23976 2.20679 14.56
53 2 5.50331 1.08571 15.5003
54 2 6.28626 0.539765 17.5845
55 2 5.55075 3.20473 0
56 2 9.25125 3.20473 2.35169
57 2 9.25125 5.34121 3.13559
58 2 9.28365 5.34476 5.42368
59 2 7.43073 4.29469 6.24574
60 2 7.39951 4.27337 8.54243
61 2 11.0692 6.41091 9.31128
62 2 9.20515 3.20594 11.6501
63 2 9.18167 5.3336 12.4556
64 2 9.18203 5.36817 14.6641
65 2 7.34564 4.29046 15.4297
66 2 8.18364 3.77548 17.6498
67 3 1.97348 1.18756 23.5595
68 3 -0.475917 4.65194 23.5368
69 3 5.99152 1.61206 23.4013
70 3 3.74 3.62049 23.2505
ITEM: TIMESTEP
800
ITEM: NUMBER OF ATOMS
70
ITEM: BOX BOUNDS xy xz yz pp pp ff
-3.7004999999999999e+00 7.4009999999999998e+00 -3.7004999999999999e+00
0.0000000000000000e+00 6.4094540134086300e+00 0.0000000000000000e+00
0.0000000000000000e+00 4.0329638543820927e+01 0.0000000000000000e+00
ITEM: ATOMS id type xu yu zu
1 1 -0.0336554 0.162164 20.4513
2 1 1.18715 0.868113 20.4936
3 1 -1.25055 2.22932 20.4639
4 1 -0.0129606 3.02268 20.4395
5 1 -2.51289 4.37978 20.266
6 1 -1.25124 5.11023 20.2468
7 1 2.44583 0.161909 20.331
8 1 3.68898 0.808678 20.358
9 1 1.17262 2.256 20.4765
10 1 2.44915 2.97614 20.416
11 1 -0.00623808 4.45258 20.2643
12 1 1.18323 5.12149 20.4663
13 1 4.92798 0.162105 20.4758
14 1 6.16058 0.830014 20.4527
15 1 3.6867 2.2181 20.3582
16 1 4.91656 2.98717 20.2765
17 1 2.44712 4.41215 20.4967
18 1 3.70496 5.09951 20.5106
19 2 0 0 0
20 2 3.7005 0 2.35169
21 2 3.7005 2.13648 3.13559
22 2 3.71378 2.14517 5.42099
23 2 1.86065 1.081 6.24879
24 2 1.83945 1.04398 8.54693
25 2 5.49381 3.21884 9.34794
26 2 3.58268 0.0503317 11.7139
27 2 3.60865 2.17085 12.5854
28 2 3.61102 2.15012 14.9255
29 2 1.74079 1.07134 15.4674
30 2 1.11052 1.3557 17.6532
31 2 1.85025 3.20473 0
32 2 5.55075 3.20473 2.35169
33 2 5.55075 5.34121 3.13559
34 2 5.57931 5.34489 5.41398
35 2 3.72995 4.28572 6.23324
36 2 3.65513 4.26356 8.5227
37 2 7.36821 6.40492 9.38289
38 2 5.44388 3.21688 11.6583
39 2 5.43838 5.33036 12.5161
40 2 5.51758 5.25552 14.8604
41 2 3.65214 4.28125 15.5909
42 2 3.12917 4.67895 17.6421
43 2 3.7005 0 0
44 2 7.401 0 2.35169
45 2 7.401 2.13648 3.13559
46 2 7.41359 2.14548 5.42984
47 2 5.57073 1.08054 6.24696
48 2 5.5235 1.0772 8.53902
49 2 9.21324 3.17241 9.35927
50 2 7.3413 0.0386433 11.6118
51 2 7.28896 2.17181 12.4075
52 2 7.29674 2.19567 14.6444
53 2 5.52873 1.02097 15.4729
54 2 6.32006 0.589456 17.5948
55 2 5.55075 3.20473 0
56 2 9.25125 3.20473 2.35169
57 2 9.25125 5.34121 3.13559
58 2 9.26565 5.33972 5.43621
59 2 7.41841 4.28246 6.27197
60 2 7.37648 4.26685 8.57257
61 2 11.0849 6.4041 9.30635
62 2 9.15463 3.17921 11.6799
63 2 9.17307 5.35602 12.2749
64 2 9.20396 5.35239 14.5804
65 2 7.40935 4.24073 15.554
66 2 8.12239 3.71047 17.6074
67 3 1.98485 0.903029 23.719
68 3 -0.58272 4.6637 23.6218
69 3 6.137 1.75277 23.4579
70 3 3.80191 3.72408 23.4001
ITEM: TIMESTEP
900
ITEM: NUMBER OF ATOMS
70
ITEM: BOX BOUNDS xy xz yz pp pp ff
-3.7004999999999999e+00 7.4009999999999998e+00 -3.7004999999999999e+00
0.0000000000000000e+00 6.4094540134086300e+00 0.0000000000000000e+00
0.0000000000000000e+00 4.0329638543820927e+01 0.0000000000000000e+00
ITEM: ATOMS id type xu yu zu
1 1 -0.0264977 0.143713 20.576
2 1 1.20025 0.861895 20.5735
3 1 -1.26556 2.28578 20.3128
4 1 -0.0458251 2.9398 20.4578
5 1 -2.53174 4.45806 20.3882
6 1 -1.25131 5.11604 20.4277
7 1 2.42648 0.124888 20.3451
8 1 3.64047 0.870151 20.244
9 1 1.20783 2.24439 20.5524
10 1 2.43779 3.04506 20.4337
11 1 -0.0044178 4.38984 20.4691
12 1 1.21374 5.12283 20.3567
13 1 4.87172 0.158532 20.2169
14 1 6.09997 0.873865 20.4793
15 1 3.64268 2.30454 20.2354
16 1 4.91866 3.01205 20.2944
17 1 2.46376 4.4339 20.4403
18 1 3.66368 5.13468 20.4407
19 2 0 0 0
20 2 3.7005 0 2.35169
21 2 3.7005 2.13648 3.13559
22 2 3.70941 2.12216 5.44469
23 2 1.86247 1.04482 6.24052
24 2 1.81923 1.07446 8.53921
25 2 5.4891 3.19286 9.4109
26 2 3.56184 0.0524183 11.7482
27 2 3.57469 2.16411 12.6588
28 2 3.5889 2.09227 15.0113
29 2 1.71638 0.969229 15.6385
30 2 1.16959 1.36959 17.7822
31 2 1.85025 3.20473 0
32 2 5.55075 3.20473 2.35169
33 2 5.55075 5.34121 3.13559
34 2 5.56002 5.31819 5.44771
35 2 3.68551 4.26846 6.24309
36 2 3.65561 4.25843 8.56753
37 2 7.33528 6.42308 9.39852
38 2 5.39699 3.24801 11.7428
39 2 5.49783 5.3645 12.6465
40 2 5.61073 5.27575 14.9614
41 2 3.60207 4.30427 15.4078
42 2 3.09201 4.71179 17.6686
43 2 3.7005 0 0
44 2 7.401 0 2.35169
45 2 7.401 2.13648 3.13559
46 2 7.40961 2.14526 5.45065
47 2 5.55387 1.0669 6.28534
48 2 5.49253 1.06879 8.59902
49 2 9.20072 3.20205 9.35527
50 2 7.34923 0.018992 11.6763
51 2 7.28108 2.16511 12.4901
52 2 7.34756 2.12094 14.7092
53 2 5.57 0.982622 15.5095
54 2 6.29726 0.627318 17.6083
55 2 5.55075 3.20473 0
56 2 9.25125 3.20473 2.35169
57 2 9.25125 5.34121 3.13559
58 2 9.23747 5.35948 5.45729
59 2 7.39624 4.25901 6.28631
60 2 7.332 4.26983 8.60149
61 2 11.0598 6.40124 9.33253
62 2 9.16825 3.21736 11.6787
63 2 9.15552 5.38364 12.3738
64 2 9.18089 5.29194 14.5324
65 2 7.5061 4.25641 15.5822
66 2 8.3206 3.7076 17.6267
67 3 1.99989 0.796558 23.8097
68 3 -0.677012 4.69901 23.6574
69 3 6.26867 1.7658 23.6487
70 3 3.88168 3.75184 23.7415
ITEM: TIMESTEP
1000
ITEM: NUMBER OF ATOMS
70
ITEM: BOX BOUNDS xy xz yz pp pp ff
-3.7004999999999999e+00 7.4009999999999998e+00 -3.7004999999999999e+00
0.0000000000000000e+00 6.4094540134086300e+00 0.0000000000000000e+00
0.0000000000000000e+00 4.0329638543820927e+01 0.0000000000000000e+00
ITEM: ATOMS id type xu yu zu
1 1 -0.0153086 0.158923 20.4598
2 1 1.17342 0.897451 20.536
3 1 -1.30785 2.34099 20.3795
4 1 -0.0451379 3.00256 20.4092
5 1 -2.55525 4.40707 20.4006
6 1 -1.31004 5.19581 20.3287
7 1 2.39303 0.199434 20.4941
8 1 3.66654 0.87063 20.3202
9 1 1.1732 2.2911 20.4474
10 1 2.36937 2.95508 20.3684
11 1 -0.0611826 4.49256 20.3453
12 1 1.15007 5.14958 20.3645
13 1 4.90888 0.139784 20.3983
14 1 6.1431 0.87791 20.4879
15 1 3.67961 2.30543 20.2266
16 1 4.88327 2.97435 20.3113
17 1 2.38712 4.45199 20.4591
18 1 3.62957 5.13522 20.5067
19 2 0 0 0
20 2 3.7005 0 2.35169
21 2 3.7005 2.13648 3.13559
22 2 3.69431 2.12477 5.46928
23 2 1.82594 1.04329 6.25523
24 2 1.75501 1.0825 8.57301
25 2 5.47326 3.20102 9.50002
26 2 3.62673 0.0439347 11.7125
27 2 3.56728 2.15536 12.6506
28 2 3.61878 2.01151 15.0328
29 2 1.78197 1.03931 15.6987
30 2 1.28688 1.37053 17.8105
31 2 1.85025 3.20473 0
32 2 5.55075 3.20473 2.35169
33 2 5.55075 5.34121 3.13559
34 2 5.50571 5.30196 5.47739
35 2 3.64473 4.24591 6.30987
36 2 3.6659 4.27655 8.60532
37 2 7.29864 6.41922 9.41789
38 2 5.44283 3.23138 11.8579
39 2 5.49146 5.38286 12.6595
40 2 5.53834 5.324 15.0221
41 2 3.64048 4.25205 15.4901
42 2 3.09243 4.67116 17.5937
43 2 3.7005 0 0
44 2 7.401 0 2.35169
45 2 7.401 2.13648 3.13559
46 2 7.38257 2.10364 5.47097
47 2 5.53161 1.06607 6.32859
48 2 5.48316 1.05474 8.64794
49 2 9.17836 3.23338 9.3631
50 2 7.33364 0.01088 11.7575
51 2 7.30862 2.1464 12.4828
52 2 7.40276 2.07496 14.7175
53 2 5.54547 1.03091 15.5265
54 2 6.2941 0.59877 17.5533
55 2 5.55075 3.20473 0
56 2 9.25125 3.20473 2.35169
57 2 9.25125 5.34121 3.13559
58 2 9.22067 5.32979 5.46774
59 2 7.37914 4.25821 6.31076
60 2 7.30583 4.28422 8.61872
61 2 11.0408 6.4186 9.43348
62 2 9.14583 3.25059 11.6935
63 2 9.14678 5.37663 12.4154
64 2 9.18116 5.36647 14.6713
65 2 7.49891 4.08834 15.6082
66 2 8.5138 3.72958 17.7393
67 3 2.0056 0.949898 23.8504
68 3 -0.60808 4.61254 23.6452
69 3 6.29848 1.63883 23.8393
70 3 3.92995 3.77796 24.0396
ITEM: TIMESTEP
1100
ITEM: NUMBER OF ATOMS
70
ITEM: BOX BOUNDS xy xz yz pp pp ff
-3.7004999999999999e+00 7.4009999999999998e+00 -3.7004999999999999e+00
0.0000000000000000e+00 6.4094540134086300e+00 0.0000000000000000e+00
0.0000000000000000e+00 4.0329638543820927e+01 0.0000000000000000e+00
ITEM: ATOMS id type xu yu zu
1 1 -0.114328 0.171545 20.522
2 1 1.18104 0.899025 20.4949
3 1 -1.33482 2.30128 20.3716
4 1 -0.0866941 3.04994 20.3887
5 1 -2.57875 4.44966 20.2053
6 1 -1.32682 5.18867 20.2485
7 1 2.31643 0.20141 20.3112
8 1 3.58232 0.883103 20.3851
9 1 1.1447 2.32437 20.5228
10 1 2.37554 3.06319 20.4568
11 1 -0.0941802 4.44184 20.3207
12 1 1.17667 5.18885 20.448
13 1 4.84888 0.221284 20.4997
14 1 6.03058 0.886955 20.4786
15 1 3.62089 2.30962 20.5283
16 1 4.8315 3.04177 20.2637
17 1 2.43569 4.48828 20.4089
18 1 3.63832 5.17529 20.3888
19 2 0 0 0
20 2 3.7005 0 2.35169
21 2 3.7005 2.13648 3.13559
22 2 3.64896 2.10629 5.47566
23 2 1.788 1.04214 6.29742
24 2 1.74799 1.09355 8.60006
25 2 5.45351 3.2155 9.53995
26 2 3.58187 0.0443289 11.7325
27 2 3.61211 2.15962 12.5948
28 2 3.69032 2.1669 14.8985
29 2 1.83507 1.05419 15.5624
30 2 1.31148 1.3235 17.6952
31 2 1.85025 3.20473 0
32 2 5.55075 3.20473 2.35169
33 2 5.55075 5.34121 3.13559
34 2 5.48705 5.30761 5.46019
35 2 3.65393 4.24875 6.32921
36 2 3.63373 4.28432 8.65426
37 2 7.28495 6.43838 9.39061
38 2 5.47683 3.22695 11.852
39 2 5.49119 5.34651 12.6682
40 2 5.5845 5.2478 15.012
41 2 3.68372 4.2367 15.5674
42 2 3.31482 4.68758 17.6369
43 2 3.7005 0 0
44 2 7.401 0 2.35169
45 2 7.401 2.13648 3.13559
46 2 7.32744 2.11847 5.4664
47 2 5.49043 1.03342 6.33189
48 2 5.45159 1.10132 8.64573
49 2 9.17093 3.22535 9.38902
50 2 7.3546 -0.00554542 11.7781
51 2 7.38 2.16181 12.5034
52 2 7.38955 2.03902 14.6528
53 2 5.60304 1.06142 15.5676
54 2 6.49507 0.53184 17.6559
55 2 5.55075 3.20473 0
56 2 9.25125 3.20473 2.35169
57 2 9.25125 5.34121 3.13559
58 2 9.19118 5.31781 5.48428
59 2 7.31695 4.2471 6.28673
60 2 7.28723 4.28042 8.61401
61 2 11.0206 6.41103 9.46108
62 2 9.18035 3.19742 11.7047
63 2 9.15869 5.34049 12.5354
64 2 9.16596 5.28378 14.8112
65 2 7.40096 4.12627 15.7194
66 2 8.3524 3.67572 17.6802
67 3 2.0414 1.28834 23.8267
68 3 -0.483612 4.51949 23.576
69 3 6.25314 1.44392 23.9536
70 3 3.98824 3.6918 24.1677
ITEM: TIMESTEP
1200
ITEM: NUMBER OF ATOMS
70
ITEM: BOX BOUNDS xy xz yz pp pp ff
-3.7004999999999999e+00 7.4009999999999998e+00 -3.7004999999999999e+00
0.0000000000000000e+00 6.4094540134086300e+00 0.0000000000000000e+00
0.0000000000000000e+00 4.0329638543820927e+01 0.0000000000000000e+00
ITEM: ATOMS id type xu yu zu
1 1 -0.133874 0.204166 20.5404
2 1 1.10692 0.919078 20.463
3 1 -1.38265 2.31622 20.4033
4 1 -0.149062 3.06506 20.3948
5 1 -2.60762 4.5221 20.4339
6 1 -1.33067 5.17176 20.2933
7 1 2.36678 0.221786 20.392
8 1 3.58534 0.976493 20.3611
9 1 1.11485 2.31953 20.487
10 1 2.3166 3.07053 20.4366
11 1 -0.116103 4.45091 20.3386
12 1 1.10446 5.18447 20.3633
13 1 4.80809 0.235233 20.2846
14 1 6.05011 0.947017 20.424
15 1 3.56431 2.37331 20.2327
16 1 4.80493 3.09333 20.3385
17 1 2.30506 4.50462 20.5574
18 1 3.54008 5.22947 20.4991
19 2 0 0 0
20 2 3.7005 0 2.35169
21 2 3.7005 2.13648 3.13559
22 2 3.60792 2.10954 5.47273
23 2 1.73975 1.06176 6.28682
24 2 1.74925 1.06618 8.59819
25 2 5.46037 3.24413 9.38466
26 2 3.63308 -0.0421379 11.7468
27 2 3.69673 2.11212 12.4921
28 2 3.75916 2.12896 14.8402
29 2 1.88269 1.03696 15.443
30 2 1.41382 1.32687 17.6597
31 2 1.85025 3.20473 0
32 2 5.55075 3.20473 2.35169
33 2 5.55075 5.34121 3.13559
34 2 5.46862 5.35006 5.45002
35 2 3.62396 4.24935 6.29155
36 2 3.58901 4.29617 8.60829
37 2 7.32032 6.41462 9.41534
38 2 5.52252 3.21233 11.6923
39 2 5.51943 5.33008 12.6121
40 2 5.62496 5.32206 14.9232
41 2 3.66515 4.33327 15.5741
42 2 3.25291 4.52031 17.7611
43 2 3.7005 0 0
44 2 7.401 0 2.35169
45 2 7.401 2.13648 3.13559
46 2 7.29853 2.1125 5.46324
47 2 5.44313 1.03207 6.28904
48 2 5.45066 1.09209 8.61149
49 2 9.13441 3.23 9.38304
50 2 7.31088 -0.0292012 11.7596
51 2 7.35458 2.10936 12.438
52 2 7.34029 2.14658 14.7606
53 2 5.60984 0.93033 15.6787
54 2 6.67001 0.516673 17.6694
55 2 5.55075 3.20473 0
56 2 9.25125 3.20473 2.35169
57 2 9.25125 5.34121 3.13559
58 2 9.17966 5.29728 5.47796
59 2 7.30219 4.2505 6.27853
60 2 7.29274 4.29404 8.58037
61 2 10.9728 6.43155 9.40172
62 2 9.25112 3.24335 11.7068
63 2 9.15781 5.34378 12.6282
64 2 9.18191 5.26623 14.8313
65 2 7.41433 4.2014 15.7003
66 2 8.41284 3.6136 17.7268
67 3 2.02998 1.53727 23.714
68 3 -0.559029 4.4079 23.5493
69 3 6.3679 1.44777 23.9118
70 3 4.1295 3.52208 24.0685
ITEM: TIMESTEP
1300
ITEM: NUMBER OF ATOMS
70
ITEM: BOX BOUNDS xy xz yz pp pp ff
-3.7004999999999999e+00 7.4009999999999998e+00 -3.7004999999999999e+00
0.0000000000000000e+00 6.4094540134086300e+00 0.0000000000000000e+00
0.0000000000000000e+00 4.0329638543820927e+01 0.0000000000000000e+00
ITEM: ATOMS id type xu yu zu