ITEM: TIMESTEP
0
ITEM: NUMBER OF ATOMS
70
ITEM: BOX BOUNDS xy xz yz pp pp ff
-3.7004999999999999e+00 7.4009999999999998e+00 -3.7004999999999999e+00
0.0000000000000000e+00 6.4094540134086300e+00 0.0000000000000000e+00
0.0000000000000000e+00 4.0329638543820927e+01 0.0000000000000000e+00
ITEM: ATOMS id type xu yu zu
1 1 2.39002 8.06466 20.3941
2 1 3.6189 8.76958 20.3701
3 1 1.11779 10.1429 20.3916
4 1 2.37031 10.8453 20.3811
5 1 -0.0685612 12.3651 20.3018
6 1 1.17526 13.0277 20.365
7 1 4.85082 8.03291 20.4219
8 1 6.06394 8.76329 20.4451
9 1 3.61273 10.1689 20.2786
10 1 4.86408 10.8765 20.3632
11 1 2.39589 12.3226 20.484
12 1 3.64169 13.0331 20.5204
13 1 7.27467 8.02085 20.4976
14 1 8.50097 8.75378 20.4402
15 1 6.09539 10.1324 20.3899
16 1 7.33704 10.8532 20.3739
17 1 4.8963 12.3174 20.4712
18 1 6.10705 13.0321 20.3538
19 2 0 0 0
20 2 3.7005 0 2.35169
21 2 3.7005 2.13648 3.13559
22 2 3.7375 2.13374 5.50074
23 2 1.80782 1.13151 6.37606
24 2 1.75412 1.18784 8.74447
25 2 5.52668 3.27084 9.60463
26 2 3.58007 0.158476 12.1105
27 2 3.71053 2.23164 13.2034
28 2 2.93976 2.95695 15.518
29 2 1.4006 1.69486 16.8362
30 2 -0.644635 3.34302 17.3133
31 2 1.85025 3.20473 0
32 2 5.55075 3.20473 2.35169
33 2 5.55075 5.34121 3.13559
34 2 5.55167 5.31594 5.51766
35 2 3.72323 4.24759 6.33676
36 2 3.658 4.28907 8.72362
37 2 7.31859 6.48973 9.64798
38 2 5.45064 3.24021 12.0632
39 2 5.58607 5.37085 13.1501
40 2 4.84284 6.21901 15.4758
41 2 3.18586 5.05271 16.6564
42 2 1.17599 6.65692 17.2649
43 2 3.7005 0 0
44 2 7.401 0 2.35169
45 2 7.401 2.13648 3.13559
46 2 7.37474 2.15786 5.52925
47 2 5.57327 1.0354 6.41756
48 2 5.49084 1.09539 8.788
49 2 9.21588 3.2446 9.63455
50 2 7.45009 -0.104131 11.9372
51 2 7.41756 2.12486 12.7096
52 2 7.18463 2.24477 15.103
53 2 5.05936 1.46847 15.1749
54 2 4.51302 2.66078 17.2327
55 2 5.55075 3.20473 0
56 2 9.25125 3.20473 2.35169
57 2 9.25125 5.34121 3.13559
58 2 9.2493 5.3132 5.54023
59 2 7.37694 4.23822 6.37072
60 2 7.37174 4.35177 8.78006
61 2 10.9979 6.44021 9.5872
62 2 9.39007 3.22001 11.9767
63 2 9.23161 5.42163 12.6965
64 2 8.94967 5.49873 15.0204
65 2 6.78085 4.66883 15.2573
66 2 6.38543 5.83673 17.3025
67 3 -12.8889 19.6984 23.507
68 3 -18.2851 21.9768 23.4205
69 3 -10.0422 18.615 23.4448
70 3 -15.0347 22.339 23.595
ITEM: TIMESTEP
100
ITEM: NUMBER OF ATOMS
70
ITEM: BOX BOUNDS xy xz yz pp pp ff
-3.7004999999999999e+00 7.4009999999999998e+00 -3.7004999999999999e+00
0.0000000000000000e+00 6.4094540134086300e+00 0.0000000000000000e+00
0.0000000000000000e+00 4.0329638543820927e+01 0.0000000000000000e+00
ITEM: ATOMS id type xu yu zu
1 1 2.44725 8.03606 20.3921
2 1 3.66406 8.75454 20.4258
3 1 1.15699 10.1848 20.3882
4 1 2.43646 10.8406 20.3867
5 1 -0.0797205 12.3742 20.2987
6 1 1.18622 13.0698 20.3532
7 1 4.89926 8.06366 20.3497
8 1 6.15196 8.81237 20.487
9 1 3.65944 10.1281 20.4837
10 1 4.85971 10.9053 20.4517
11 1 2.3771 12.3115 20.3074
12 1 3.61664 13.0247 20.4067
13 1 7.32505 8.05161 20.5087
14 1 8.56274 8.77594 20.4627
15 1 6.12383 10.1568 20.4486
16 1 7.37355 10.8929 20.3733
17 1 4.87946 12.3394 20.3562
18 1 6.08031 13.0116 20.3632
19 2 0 0 0
20 2 3.7005 0 2.35169
21 2 3.7005 2.13648 3.13559
22 2 3.6893 2.04985 5.50762
23 2 1.83634 0.998531 6.34965
24 2 1.82344 0.990996 8.69666
25 2 5.46697 3.29931 9.63522
26 2 3.52543 0.084843 11.976
27 2 3.79111 2.09044 13.1236
28 2 3.04447 2.93659 15.514
29 2 1.47437 1.70478 16.7257
30 2 -0.730891 3.37348 17.3096
31 2 1.85025 3.20473 0
32 2 5.55075 3.20473 2.35169
33 2 5.55075 5.34121 3.13559
34 2 5.51812 5.32094 5.5039
35 2 3.66548 4.23198 6.37426
36 2 3.63293 4.32825 8.65509
37 2 7.31624 6.42168 9.60331
38 2 5.56778 3.21192 12.0175
39 2 5.52785 5.28905 13.0767
40 2 4.78548 6.16971 15.4358
41 2 3.29369 4.96566 16.6289
42 2 1.36942 6.62922 17.1778
43 2 3.7005 0 0
44 2 7.401 0 2.35169
45 2 7.401 2.13648 3.13559
46 2 7.3973 2.15544 5.51702
47 2 5.59662 1.08503 6.38871
48 2 5.45774 1.12924 8.71276
49 2 9.2658 3.22255 9.61783
50 2 7.50411 -0.0239734 11.862
51 2 7.49219 2.12288 12.7302
52 2 7.27098 2.16878 15.0405
53 2 5.01272 1.43244 15.1373
54 2 4.50165 2.5911 17.3028
55 2 5.55075 3.20473 0
56 2 9.25125 3.20473 2.35169
57 2 9.25125 5.34121 3.13559
58 2 9.23884 5.33607 5.62266
59 2 7.33608 4.31045 6.50244
60 2 7.36629 4.29525 8.75818
61 2 11.0775 6.40698 9.49878
62 2 9.28115 3.21858 11.9995
63 2 9.23137 5.4422 12.7308
64 2 8.97954 5.49355 15.0552
65 2 6.82272 4.53009 15.1549
66 2 6.42741 5.79132 17.2876
67 3 -13.1001 19.9364 23.5645
68 3 -18.2719 21.7566 23.6748
69 3 -10.0059 18.7807 23.4994
70 3 -15.1278 22.4326 23.6693
ITEM: TIMESTEP
200
ITEM: NUMBER OF ATOMS
70
ITEM: BOX BOUNDS xy xz yz pp pp ff
-3.7004999999999999e+00 7.4009999999999998e+00 -3.7004999999999999e+00
0.0000000000000000e+00 6.4094540134086300e+00 0.0000000000000000e+00
0.0000000000000000e+00 4.0329638543820927e+01 0.0000000000000000e+00
ITEM: ATOMS id type xu yu zu
1 1 2.50017 8.05317 20.4242
2 1 3.68696 8.80233 20.4505
3 1 1.19572 10.2389 20.4568
4 1 2.46748 10.9586 20.4737
5 1 -0.0474098 12.2705 20.4285
6 1 1.18607 13.0634 20.3175
7 1 4.86865 8.05706 20.4441
8 1 6.14012 8.75594 20.3519
9 1 3.67527 10.202 20.4844
10 1 4.8765 10.8951 20.4676
11 1 2.45626 12.3939 20.3704
12 1 3.70137 13.0791 20.3006
13 1 7.38481 8.13122 20.2383
14 1 8.62901 8.79431 20.3817
15 1 6.13514 10.1045 20.4333
16 1 7.35967 10.8348 20.4332
17 1 4.93777 12.3414 20.3899
18 1 6.14761 13.0206 20.3969
19 2 0 0 0
20 2 3.7005 0 2.35169
21 2 3.7005 2.13648 3.13559
22 2 3.65051 2.07749 5.49526
23 2 1.841 0.968683 6.33865
24 2 1.87903 1.02469 8.64368
25 2 5.44598 3.19728 9.61937
26 2 3.60701 -0.101261 11.87
27 2 3.77316 2.12357 12.9474
28 2 3.02821 2.89722 15.3746
29 2 1.5551 1.68203 16.6764
30 2 -0.633087 3.30739 17.1666
31 2 1.85025 3.20473 0
32 2 5.55075 3.20473 2.35169
33 2 5.55075 5.34121 3.13559
34 2 5.46663 5.26648 5.47364
35 2 3.61854 4.18106 6.33941
36 2 3.64219 4.251 8.72078
37 2 7.43616 6.35728 9.54951
38 2 5.61296 3.18266 11.9562
39 2 5.49302 5.2587 13.036
40 2 4.87485 6.09319 15.3526
41 2 3.3764 4.83971 16.6761
42 2 1.41294 6.43521 17.1767
43 2 3.7005 0 0
44 2 7.401 0 2.35169
45 2 7.401 2.13648 3.13559
46 2 7.46313 2.18746 5.50351
47 2 5.50724 1.11573 6.35115
48 2 5.52001 1.15764 8.72417
49 2 9.23576 3.09782 9.53163
50 2 7.48215 0.0546404 11.8453
51 2 7.49688 2.12232 12.7034
52 2 7.24492 2.10927 15.0324
53 2 5.05153 1.49793 15.2418
54 2 4.47542 2.44821 17.3569
55 2 5.55075 3.20473 0
56 2 9.25125 3.20473 2.35169
57 2 9.25125 5.34121 3.13559
58 2 9.1702 5.35568 5.46663
59 2 7.38637 4.3043 6.41179
60 2 7.37393 4.16235 8.86415
61 2 11.0648 6.46197 9.47758
62 2 9.35943 3.24931 11.9699
63 2 9.25511 5.3987 12.6628
64 2 8.95539 5.38627 15.0953
65 2 6.8538 4.57284 15.1555
66 2 6.55389 5.76899 17.0921
67 3 -13.3879 20.0851 23.6534
68 3 -18.1437 21.5669 23.9842
69 3 -10.0702 18.9658 23.608
70 3 -15.2059 22.621 23.734
ITEM: TIMESTEP
300
ITEM: NUMBER OF ATOMS
70
ITEM: BOX BOUNDS xy xz yz pp pp ff
-3.7004999999999999e+00 7.4009999999999998e+00 -3.7004999999999999e+00
0.0000000000000000e+00 6.4094540134086300e+00 0.0000000000000000e+00
0.0000000000000000e+00 4.0329638543820927e+01 0.0000000000000000e+00
ITEM: ATOMS id type xu yu zu
1 1 2.46913 8.12225 20.4143
2 1 3.74774 8.80151 20.4084
3 1 1.19884 10.1654 20.4222
4 1 2.47571 10.8545 20.4262
5 1 0.0425142 12.4013 20.4878
6 1 1.27908 13.0939 20.513
7 1 4.9699 8.14142 20.3512
8 1 6.16367 8.85081 20.2879
9 1 3.73847 10.1799 20.3854
10 1 4.95519 10.9018 20.3538
11 1 2.51108 12.2827 20.5002
12 1 3.72435 12.984 20.3605
13 1 7.34255 8.10089 20.369
14 1 8.56568 8.76058 20.333
15 1 6.24695 10.2364 20.3329
16 1 7.42197 10.9723 20.4325
17 1 4.97361 12.3535 20.4366
18 1 6.18919 13.1078 20.4288
19 2 0 0 0
20 2 3.7005 0 2.35169
21 2 3.7005 2.13648 3.13559
22 2 3.63675 2.15629 5.44285
23 2 1.77634 1.02609 6.30454
24 2 1.90882 0.980383 8.65758
25 2 5.51598 3.14734 9.58123
26 2 3.69737 -0.076418 11.9466
27 2 3.7621 2.0508 12.8485
28 2 2.98875 2.88898 15.2363
29 2 1.61677 1.56877 16.646
30 2 -0.422514 3.19604 17.1536
31 2 1.85025 3.20473 0
32 2 5.55075 3.20473 2.35169
33 2 5.55075 5.34121 3.13559
34 2 5.4787 5.18475 5.50206
35 2 3.55782 4.28206 6.34142
36 2 3.63893 4.23742 8.71631
37 2 7.48775 6.28834 9.49344
38 2 5.49016 3.18414 11.9215
39 2 5.59021 5.33194 12.94
40 2 4.94362 6.02257 15.3484
41 2 3.45267 4.74273 16.6519
42 2 1.34663 6.25965 17.2253
43 2 3.7005 0 0
44 2 7.401 0 2.35169
45 2 7.401 2.13648 3.13559
46 2 7.35995 2.11598 5.49815
47 2 5.55116 1.08227 6.31051
48 2 5.5883 0.981187 8.65103
49 2 9.26815 3.07868 9.57353
50 2 7.45739 -0.0514448 11.8592
51 2 7.50034 2.18046 12.6812
52 2 7.1932 2.14328 15.0683
53 2 5.03222 1.24973 15.2241
54 2 4.52544 2.36354 17.2075
55 2 5.55075 3.20473 0
56 2 9.25125 3.20473 2.35169
57 2 9.25125 5.34121 3.13559
58 2 9.21864 5.3854 5.4083
59 2 7.3764 4.22138 6.32783
60 2 7.37386 4.15982 8.68512
61 2 11.1217 6.38629 9.52793
62 2 9.46425 3.16998 11.7637
63 2 9.35023 5.36426 12.6637
64 2 9.17469 5.3053 14.9058
65 2 6.86677 4.58767 15.0573
66 2 6.5306 5.70947 17.0905
67 3 -13.6063 20.3388 23.726
68 3 -18.2896 21.5788 24.2765
69 3 -10.0744 19.0655 23.682
70 3 -15.2143 22.6584 23.7337
ITEM: TIMESTEP
400
ITEM: NUMBER OF ATOMS
70
ITEM: BOX BOUNDS xy xz yz pp pp ff
-3.7004999999999999e+00 7.4009999999999998e+00 -3.7004999999999999e+00
0.0000000000000000e+00 6.4094540134086300e+00 0.0000000000000000e+00
0.0000000000000000e+00 4.0329638543820927e+01 0.0000000000000000e+00
ITEM: ATOMS id type xu yu zu
1 1 2.54218 8.04786 20.3655
2 1 3.8085 8.79359 20.3006
3 1 1.33124 10.2361 20.3436
4 1 2.55987 10.9887 20.3751
5 1 0.0299213 12.3365 20.39
6 1 1.23286 13.0893 20.4419
7 1 5.01449 8.163 20.3922
8 1 6.26321 8.81115 20.4545
9 1 3.76779 10.2031 20.3369
10 1 5.01286 10.9297 20.3056
11 1 2.51941 12.3962 20.4247
12 1 3.77153 13.0986 20.6036
13 1 7.52019 8.1947 20.5311
14 1 8.74924 8.85559 20.4578
15 1 6.21529 10.1899 20.3401
16 1 7.40094 10.9016 20.3135
17 1 4.93166 12.3894 20.4037
18 1 6.20045 13.053 20.4632
19 2 0 0 0
20 2 3.7005 0 2.35169
21 2 3.7005 2.13648 3.13559
22 2 3.63211 2.14665 5.51783
23 2 1.84098 0.99361 6.30665
24 2 1.92747 0.888864 8.66515
25 2 5.6028 3.07063 9.4376
26 2 3.82839 0.00425664 11.8541
27 2 3.79767 1.96925 13.0369
28 2 3.06377 2.76079 15.1828
29 2 1.65374 1.5317 16.5864
30 2 -0.427281 3.11861 17.225
31 2 1.85025 3.20473 0
32 2 5.55075 3.20473 2.35169
33 2 5.55075 5.34121 3.13559
34 2 5.53696 5.36424 5.50339
35 2 3.64584 4.30142 6.382
36 2 3.75597 4.18176 8.62826
37 2 7.39644 6.26711 9.53238
38 2 5.54318 3.2418 11.9051
39 2 5.72275 5.33793 12.9103
40 2 4.93216 5.95835 15.3408
41 2 3.45737 4.61701 16.564
42 2 1.34696 6.20649 17.1904
43 2 3.7005 0 0
44 2 7.401 0 2.35169
45 2 7.401 2.13648 3.13559
46 2 7.31234 2.03803 5.42738
47 2 5.43556 1.0326 6.31899
48 2 5.60033 0.893474 8.63165
49 2 9.26557 3.14022 9.34945
50 2 7.58265 -0.00481712 11.9117
51 2 7.44613 2.14678 12.6168
52 2 7.16278 2.14311 14.9845
53 2 5.03446 1.03278 15.0143
54 2 4.69628 2.34304 16.973
55 2 5.55075 3.20473 0
56 2 9.25125 3.20473 2.35169
57 2 9.25125 5.34121 3.13559
58 2 9.16682 5.3299 5.53603
59 2 7.36131 4.20288 6.27046
60 2 7.42478 4.18055 8.5108
61 2 11.2606 6.22902 9.5683
62 2 9.32197 3.07687 11.8136
63 2 9.41271 5.18543 12.561
64 2 9.28162 5.14841 14.9105
65 2 7.07387 4.50673 14.9431
66 2 6.47025 5.45197 17.2414
67 3 -13.7333 20.4375 23.7235
68 3 -18.5917 21.7722 24.5169
69 3 -10.0554 19.0875 23.726
70 3 -15.2617 22.8234 23.6238
ITEM: TIMESTEP
500
ITEM: NUMBER OF ATOMS
70
ITEM: BOX BOUNDS xy xz yz pp pp ff
-3.7004999999999999e+00 7.4009999999999998e+00 -3.7004999999999999e+00
0.0000000000000000e+00 6.4094540134086300e+00 0.0000000000000000e+00
0.0000000000000000e+00 4.0329638543820927e+01 0.0000000000000000e+00
ITEM: ATOMS id type xu yu zu
1 1 2.56604 8.12618 20.4336
2 1 3.81379 8.89955 20.4551
3 1 1.3648 10.2062 20.3936
4 1 2.5769 10.9672 20.3656
5 1 0.148368 12.3947 20.248
6 1 1.35524 13.0897 20.2728
7 1 5.02226 8.14239 20.4525
8 1 6.26935 8.84635 20.5079
9 1 3.81622 10.277 20.3406
10 1 5.10878 10.9544 20.5077
11 1 2.5967 12.3993 20.3918
12 1 3.89424 13.0893 20.4102
13 1 7.47694 8.13688 20.418
14 1 8.70141 8.85205 20.4838
15 1 6.24938 10.2227 20.4476
16 1 7.46395 10.9352 20.3686
17 1 5.07684 12.3922 20.4527
18 1 6.3352 13.1506 20.2934
19 2 0 0 0
20 2 3.7005 0 2.35169
21 2 3.7005 2.13648 3.13559
22 2 3.66359 2.15296 5.48239
23 2 1.82267 1.10255 6.38128
24 2 1.8628 1.01665 8.64453
25 2 5.69219 2.97838 9.44844
26 2 3.94284 -0.093789 11.8273
27 2 3.87851 2.07873 13.0038
28 2 3.1053 2.57448 15.2617
29 2 1.51953 1.47236 16.4578
30 2 -0.481978 2.96597 17.122
31 2 1.85025 3.20473 0
32 2 5.55075 3.20473 2.35169
33 2 5.55075 5.34121 3.13559
34 2 5.52724 5.36983 5.38808
35 2 3.79911 4.23638 6.27539
36 2 3.87461 4.03753 8.65887
37 2 7.47152 6.29425 9.49609
38 2 5.58223 3.18886 11.8607
39 2 5.88652 5.29132 13.0056
40 2 5.08834 5.88149 15.329
41 2 3.51495 4.55564 16.5692
42 2 1.33045 6.19506 17.0304
43 2 3.7005 0 0
44 2 7.401 0 2.35169
45 2 7.401 2.13648 3.13559
46 2 7.35886 2.03081 5.46533
47 2 5.43169 0.985079 6.39056
48 2 5.64299 0.862652 8.77083
49 2 9.3209 3.06953 9.34721
50 2 7.66246 -0.111988 11.8993
51 2 7.36345 2.06916 12.6183
52 2 7.32853 1.97713 14.8274
53 2 5.19917 1.11276 14.8309
54 2 4.77176 2.2099 16.959
55 2 5.55075 3.20473 0
56 2 9.25125 3.20473 2.35169
57 2 9.25125 5.34121 3.13559
58 2 9.2144 5.22456 5.48334
59 2 7.31595 4.15456 6.19105
60 2 7.43994 4.14531 8.63851
61 2 11.1958 6.23411 9.55512
62 2 9.35111 2.95754 11.8085
63 2 9.47267 5.15667 12.5185
64 2 9.25642 4.96053 14.8543
65 2 7.12648 4.3777 15.108
66 2 6.41494 5.24639 17.1699
67 3 -13.7353 20.4033 23.7014
68 3 -18.8047 21.756 24.4863
69 3 -10.2932 19.2673 23.7778
70 3 -15.3118 23.2427 23.5261
ITEM: TIMESTEP
600
ITEM: NUMBER OF ATOMS
70
ITEM: BOX BOUNDS xy xz yz pp pp ff
-3.7004999999999999e+00 7.4009999999999998e+00 -3.7004999999999999e+00
0.0000000000000000e+00 6.4094540134086300e+00 0.0000000000000000e+00
0.0000000000000000e+00 4.0329638543820927e+01 0.0000000000000000e+00
ITEM: ATOMS id type xu yu zu
1 1 2.6383 8.13266 20.3936
2 1 3.90789 8.89109 20.5062
3 1 1.42529 10.2361 20.4286
4 1 2.65658 10.9098 20.4746
5 1 0.17294 12.459 20.4351
6 1 1.42038 13.1509 20.3863
7 1 5.16655 8.18612 20.3593
8 1 6.32322 8.95436 20.3378
9 1 3.88134 10.2481 20.6564
10 1 5.10585 10.9237 20.4463
11 1 2.61626 12.3701 20.2681
12 1 3.85457 13.0979 20.2132
13 1 7.54067 8.1516 20.3907
14 1 8.80469 8.8653 20.3059
15 1 6.37917 10.3459 20.4421
16 1 7.57096 11.0346 20.4348
17 1 5.0692 12.384 20.3387
18 1 6.3299 13.1719 20.4259
19 2 0 0 0
20 2 3.7005 0 2.35169
21 2 3.7005 2.13648 3.13559
22 2 3.7583 2.04305 5.42346
23 2 1.8229 1.08983 6.30763
24 2 1.88595 0.919421 8.68658
25 2 5.71584 3.0298 9.65289
26 2 3.92247 -0.112761 11.9713
27 2 3.9064 2.00959 12.7365
28 2 3.1668 2.57973 15.3713
29 2 1.4855 1.32347 16.4153
30 2 -0.435741 2.72084 16.9542
31 2 1.85025 3.20473 0
32 2 5.55075 3.20473 2.35169
33 2 5.55075 5.34121 3.13559
34 2 5.58255 5.32194 5.47093
35 2 3.74148 4.20234 6.2978
36 2 3.86364 4.10527 8.63427
37 2 7.44874 6.27881 9.47876
38 2 5.6295 3.18804 11.8641
39 2 5.9547 5.14708 13.0656
40 2 5.10227 5.69287 15.2741
41 2 3.61438 4.52708 16.5825
42 2 1.33271 6.07644 16.8401
43 2 3.7005 0 0
44 2 7.401 0 2.35169
45 2 7.401 2.13648 3.13559
46 2 7.29383 2.04199 5.53845
47 2 5.63031 0.858436 6.41017
48 2 5.66492 0.850919 8.69726
49 2 9.42745 3.09652 9.62241
50 2 7.7122 -0.306784 11.8381
51 2 7.55834 1.9134 12.5217
52 2 7.40092 1.8864 14.8491
53 2 5.30837 1.12277 14.8861
54 2 4.72767 1.9856 16.985
55 2 5.55075 3.20473 0
56 2 9.25125 3.20473 2.35169
57 2 9.25125 5.34121 3.13559
58 2 9.32603 5.23511 5.43624
59 2 7.38479 4.2105 6.38052
60 2 7.49788 4.15967 8.66448
61 2 11.2084 6.17065 9.50279
62 2 9.47348 2.94317 11.7465
63 2 9.53653 5.10864 12.5873
64 2 9.3238 4.98291 14.875
65 2 7.01156 4.13808 15.1293
66 2 6.48869 5.25873 17.1007
67 3 -13.8788 20.5406 23.5972
68 3 -18.965 22.0099 24.3073
69 3 -10.5464 19.3083 23.6629
70 3 -15.2791 23.4001 23.5652
ITEM: TIMESTEP
700
ITEM: NUMBER OF ATOMS
70
ITEM: BOX BOUNDS xy xz yz pp pp ff
-3.7004999999999999e+00 7.4009999999999998e+00 -3.7004999999999999e+00
0.0000000000000000e+00 6.4094540134086300e+00 0.0000000000000000e+00
0.0000000000000000e+00 4.0329638543820927e+01 0.0000000000000000e+00
ITEM: ATOMS id type xu yu zu
1 1 2.71205 8.14023 20.4603
2 1 3.93596 8.93013 20.391
3 1 1.51474 10.3361 20.4655
4 1 2.74285 11.0641 20.4802
5 1 0.210126 12.3763 20.4627
6 1 1.43543 13.1724 20.4519
7 1 5.15597 8.15803 20.4471
8 1 6.36364 8.83671 20.2769
9 1 3.93753 10.3196 20.3082
10 1 5.13034 10.9624 20.3973
11 1 2.69754 12.5116 20.532
12 1 3.91914 13.2363 20.3988
13 1 7.70675 8.21884 20.1676
14 1 8.92369 8.94307 20.3672
15 1 6.35067 10.2227 20.3831
16 1 7.55147 10.9341 20.4231
17 1 5.16712 12.4558 20.4078
18 1 6.4055 13.12 20.4226
19 2 0 0 0
20 2 3.7005 0 2.35169
21 2 3.7005 2.13648 3.13559
22 2 3.83205 1.94187 5.55033
23 2 1.9213 0.967649 6.2891
24 2 2.00131 0.912922 8.63496
25 2 5.68816 3.0878 9.50725
26 2 3.92771 -0.23538 11.9256
27 2 3.98325 1.87901 12.9175
28 2 3.23843 2.56655 15.2627
29 2 1.76422 1.12036 16.4892
30 2 -0.408636 2.66558 17.0832
31 2 1.85025 3.20473 0
32 2 5.55075 3.20473 2.35169
33 2 5.55075 5.34121 3.13559
34 2 5.62403 5.26756 5.60435
35 2 3.76035 4.07775 6.33808
36 2 3.85107 4.08805 8.6308
37 2 7.49341 6.24277 9.63313
38 2 5.85699 3.00479 11.9868
39 2 5.85919 5.03641 13.0312
40 2 4.98011 5.57558 15.2297
41 2 3.57988 4.45181 16.6444
42 2 1.43344 5.92337 16.9073
43 2 3.7005 0 0
44 2 7.401 0 2.35169
45 2 7.401 2.13648 3.13559
46 2 7.43025 2.17161 5.497
47 2 5.62965 0.914107 6.33061
48 2 5.63388 0.959596 8.69601
49 2 9.41137 3.04684 9.42933
50 2 7.77055 -0.391662 11.8099
51 2 7.75485 1.78519 12.4722
52 2 7.38955 1.76847 14.7499
53 2 5.12861 0.937583 14.8832
54 2 4.68374 1.87531 17.0856
55 2 5.55075 3.20473 0
56 2 9.25125 3.20473 2.35169
57 2 9.25125 5.34121 3.13559
58 2 9.28775 5.18124 5.51377
59 2 7.52427 4.24282 6.46372
60 2 7.58513 4.11044 8.79671
61 2 11.2726 6.21716 9.45675
62 2 9.52171 3.00642 11.9277
63 2 9.51045 5.07452 12.6995
64 2 9.28016 4.97307 14.9392
65 2 7.13175 4.12614 14.9097
66 2 6.6085 5.22346 17.0917
67 3 -14.0391 20.6095 23.4388
68 3 -19.1016 22.3862 24.0084
69 3 -10.6245 19.6522 23.52
70 3 -15.4123 23.1767 23.654
ITEM: TIMESTEP
800
ITEM: NUMBER OF ATOMS
70
ITEM: BOX BOUNDS xy xz yz pp pp ff
-3.7004999999999999e+00 7.4009999999999998e+00 -3.7004999999999999e+00
0.0000000000000000e+00 6.4094540134086300e+00 0.0000000000000000e+00
0.0000000000000000e+00 4.0329638543820927e+01 0.0000000000000000e+00
ITEM: ATOMS id type xu yu zu
1 1 2.70401 8.21151 20.2961
2 1 4.00361 8.91115 20.3259
3 1 1.48328 10.285 20.3333
4 1 2.73767 10.9931 20.3465
5 1 0.287791 12.5285 20.461
6 1 1.57506 13.2265 20.4649
7 1 5.22834 8.23056 20.3272
8 1 6.4242 8.90903 20.4891
9 1 4.00392 10.3113 20.3927
10 1 5.22669 11.0406 20.3167
11 1 2.78188 12.4235 20.4498
12 1 3.96127 13.1407 20.5062
13 1 7.60829 8.12589 20.5551
14 1 8.82735 8.85714 20.4635
15 1 6.45131 10.3289 20.2562
16 1 7.7161 11.094 20.3912
17 1 5.2657 12.4753 20.4405
18 1 6.47077 13.2182 20.4275
19 2 0 0 0
20 2 3.7005 0 2.35169
21 2 3.7005 2.13648 3.13559
22 2 3.77581 1.98825 5.46454
23 2 1.92646 0.912563 6.35442
24 2 2.06478 0.880197 8.61189
25 2 5.70043 3.04993 9.5307
26 2 3.88899 -0.303777 11.9877
27 2 4.08301 1.79976 13.0957
28 2 3.21722 2.44219 15.1975
29 2 1.90757 1.05729 16.5278
30 2 -0.407837 2.69839 17.0791
31 2 1.85025 3.20473 0
32 2 5.55075 3.20473 2.35169
33 2 5.55075 5.34121 3.13559
34 2 5.62321 5.13411 5.47486
35 2 3.84506 4.09927 6.33657
36 2 3.83185 4.13525 8.65351
37 2 7.64103 6.25875 9.62973
38 2 5.86431 2.736 11.9003
39 2 5.83026 4.9653 12.9158
40 2 4.9876 5.58624 15.2717
41 2 3.49295 4.31137 16.7071
42 2 1.53215 5.88569 17.2332
43 2 3.7005 0 0
44 2 7.401 0 2.35169
45 2 7.401 2.13648 3.13559
46 2 7.61565 2.09297 5.46592
47 2 5.74288 1.01079 6.3478
48 2 5.69757 0.931433 8.71198
49 2 9.45738 2.94535 9.48745
50 2 7.73943 -0.395037 11.7707
51 2 7.81821 1.70652 12.582
52 2 7.36238 1.57323 14.9179
53 2 5.18026 0.838717 15.0538
54 2 4.69874 1.88581 17.1359
55 2 5.55075 3.20473 0
56 2 9.25125 3.20473 2.35169
57 2 9.25125 5.34121 3.13559
58 2 9.39253 5.22437 5.51382
59 2 7.49245 4.18098 6.45381
60 2 7.56219 4.13422 8.7887
61 2 11.2632 6.32956 9.44426
62 2 9.70822 2.88606 11.8418
63 2 9.54849 5.14147 12.6771
64 2 9.27661 4.84808 14.9297
65 2 7.16483 4.12349 14.9442
66 2 6.64603 5.04211 16.9625
67 3 -14.1277 20.5765 23.3787
68 3 -19.1672 22.7046 23.5838
69 3 -10.7698 20.051 23.5028
70 3 -15.5809 23.009 23.7082
ITEM: TIMESTEP
900
ITEM: NUMBER OF ATOMS
70
ITEM: BOX BOUNDS xy xz yz pp pp ff
-3.7004999999999999e+00 7.4009999999999998e+00 -3.7004999999999999e+00
0.0000000000000000e+00 6.4094540134086300e+00 0.0000000000000000e+00
0.0000000000000000e+00 4.0329638543820927e+01 0.0000000000000000e+00
ITEM: ATOMS id type xu yu zu
1 1 2.83864 8.20643 20.4613
2 1 4.08502 8.86943 20.398
3 1 1.56292 10.3646 20.4023
4 1 2.81622 11.0987 20.3737
5 1 0.278762 12.4897 20.2031
6 1 1.55392 13.2177 20.3352
7 1 5.28927 8.19158 20.4453
8 1 6.50997 8.92207 20.4489
9 1 4.03364 10.3322 20.2954
10 1 5.25721 11.0301 20.4629
11 1 2.78835 12.5479 20.3547
12 1 3.98447 13.2644 20.465
13 1 7.72355 8.24402 20.4785
14 1 9.02194 8.89299 20.387
15 1 6.44215 10.3277 20.5637
16 1 7.74116 11.045 20.3625
17 1 5.22249 12.4489 20.4315
18 1 6.45304 13.154 20.3744
19 2 0 0 0
20 2 3.7005 0 2.35169
21 2 3.7005 2.13648 3.13559
22 2 3.80508 2.01347 5.43884
23 2 2.05229 0.829802 6.29367
24 2 2.12618 0.813298 8.71007
25 2 5.71501 3.02023 9.59594
26 2 3.89726 -0.297588 12.0244
27 2 4.10914 1.67377 13.029
28 2 3.17122 2.34155 15.3042
29 2 1.77329 1.09866 16.6022
30 2 -0.34608 2.64288 17.0642
31 2 1.85025 3.20473 0
32 2 5.55075 3.20473 2.35169
33 2 5.55075 5.34121 3.13559
34 2 5.71478 5.18762 5.3984
35 2 3.79861 4.16046 6.31894
36 2 3.87213 4.14839 8.68166
37 2 7.63915 6.22817 9.5416
38 2 5.80804 2.79402 11.8746
39 2 5.83302 4.78489 12.8923
40 2 5.01892 5.52699 15.3431
41 2 3.51798 4.21372 16.6598
42 2 1.52719 5.83102 17.3822
43 2 3.7005 0 0
44 2 7.401 0 2.35169
45 2 7.401 2.13648 3.13559
46 2 7.58957 1.98537 5.51393
47 2 5.75443 1.01069 6.33111
48 2 5.78984 0.927645 8.6139
49 2 9.48989 3.01455 9.5842
50 2 7.76405 -0.355015 11.7791
51 2 7.82725 1.73421 12.7546
52 2 7.49557 1.4793 15.1496
53 2 5.34337 0.703263 15.2967
54 2 4.71174 1.95193 17.2124
55 2 5.55075 3.20473 0
56 2 9.25125 3.20473 2.35169
57 2 9.25125 5.34121 3.13559
58 2 9.40935 5.33688 5.50705
59 2 7.565 4.14205 6.32679
60 2 7.59175 4.10362 8.70376
61 2 11.339 6.22343 9.47609
62 2 9.77359 2.79944 11.841
63 2 9.58997 4.94336 12.5628
64 2 9.36388 4.77726 15.043
65 2 7.06207 3.91077 15.0082
66 2 6.69074 5.03106 17.0252
67 3 -14.2288 20.5815 23.5567
68 3 -19.0572 23.023 23.2105
69 3 -11.0029 20.3293 23.597
70 3 -15.792 22.916 23.6286
ITEM: TIMESTEP
1000
ITEM: NUMBER OF ATOMS
70
ITEM: BOX BOUNDS xy xz yz pp pp ff
-3.7004999999999999e+00 7.4009999999999998e+00 -3.7004999999999999e+00
0.0000000000000000e+00 6.4094540134086300e+00 0.0000000000000000e+00
0.0000000000000000e+00 4.0329638543820927e+01 0.0000000000000000e+00
ITEM: ATOMS id type xu yu zu
1 1 2.83466 8.26476 20.3638
2 1 4.05238 8.9287 20.4453
3 1 1.58932 10.3967 20.3934
4 1 2.85665 11.0841 20.3457
5 1 0.417397 12.4832 20.5427
6 1 1.62827 13.2745 20.3304
7 1 5.29804 8.21129 20.3963
8 1 6.50014 8.8908 20.3717
9 1 4.1094 10.41 20.5641
10 1 5.34179 11.0966 20.4997
11 1 2.84463 12.5307 20.3167
12 1 4.09194 13.2449 20.2837
13 1 7.75846 8.22298 20.3216
14 1 8.98865 8.9294 20.4145
15 1 6.486 10.2951 20.4003
16 1 7.75007 11.0317 20.4329
17 1 5.3732 12.5026 20.4323
18 1 6.56592 13.2101 20.3884
19 2 0 0 0
20 2 3.7005 0 2.35169
21 2 3.7005 2.13648 3.13559
22 2 3.89249 2.10282 5.53336
23 2 2.12563 0.928707 6.3804
24 2 2.12098 0.916416 8.68254
25 2 5.81234 3.0036 9.48419
26 2 3.97982 -0.557643 11.8549
27 2 4.13273 1.62682 13.0808
28 2 3.26933 2.19586 15.4684
29 2 1.66985 1.01652 16.853
30 2 -0.270257 2.70399 17.3301
31 2 1.85025 3.20473 0
32 2 5.55075 3.20473 2.35169
33 2 5.55075 5.34121 3.13559
34 2 5.73858 5.18426 5.54212
35 2 3.83303 4.20738 6.32498
36 2 3.96573 3.98797 8.63731
37 2 7.69343 6.14602 9.56455
38 2 5.89979 2.80283 12.0228
39 2 5.85427 4.87878 13.0606
40 2 5.08963 5.36497 15.4342
41 2 3.65497 4.20079 16.6671
42 2 1.4714 5.77894 17.2729
43 2 3.7005 0 0
44 2 7.401 0 2.35169
45 2 7.401 2.13648 3.13559
46 2 7.58757 1.9903 5.48486
47 2 5.63355 1.00737 6.3174
48 2 5.8262 0.896204 8.69195
49 2 9.48536 3.0023 9.46078
50 2 7.83351 -0.369872 11.9479
51 2 7.7465 1.7767 12.7703
52 2 7.51725 1.39329 15.0402
53 2 5.28726 0.614426 15.3119
54 2 4.82769 1.92008 17.3214
55 2 5.55075 3.20473 0
56 2 9.25125 3.20473 2.35169
57 2 9.25125 5.34121 3.13559
58 2 9.35197 5.25998 5.44197
59 2 7.6736 4.11013 6.26981
60 2 7.64652 4.00744 8.63026
61 2 11.419 6.15007 9.52601
62 2 9.61203 2.68164 11.9568
63 2 9.60845 4.83411 12.6673
64 2 9.25064 4.65764 15.0237
65 2 7.10147 3.85203 15.1409
66 2 6.707 5.12388 17.2129
67 3 -14.2427 20.6075 23.8204
68 3 -18.9339 23.4527 23.1471
69 3 -11.1996 20.5096 23.7128
70 3 -16.1498 22.8187 23.5413
ITEM: TIMESTEP
1100
ITEM: NUMBER OF ATOMS
70
ITEM: BOX BOUNDS xy xz yz pp pp ff
-3.7004999999999999e+00 7.4009999999999998e+00 -3.7004999999999999e+00
0.0000000000000000e+00 6.4094540134086300e+00 0.0000000000000000e+00
0.0000000000000000e+00 4.0329638543820927e+01 0.0000000000000000e+00
ITEM: ATOMS id type xu yu zu
1 1 2.89294 8.25733 20.4907
2 1 4.16537 8.94204 20.3999
3 1 1.65733 10.371 20.4285
4 1 2.89881 11.0297 20.4745
5 1 0.43947 12.5753 20.4413
6 1 1.70593 13.3233 20.4914
7 1 5.46419 8.26858 20.3637
8 1 6.57003 9.00983 20.336
9 1 4.14473 10.3691 20.3518
10 1 5.35713 11.0917 20.2895
11 1 2.87399 12.4692 20.4876
12 1 4.07786 13.2104 20.3615
13 1 7.76253 8.22438 20.2752
14 1 9.01759 8.93744 20.3342
15 1 6.63918 10.4282 20.3535
16 1 7.86272 11.1431 20.444
17 1 5.35848 12.5057 20.4043
18 1 6.55021 13.2494 20.5157
19 2 0 0 0
20 2 3.7005 0 2.35169
21 2 3.7005 2.13648 3.13559
22 2 3.84445 2.14322 5.46696
23 2 2.01197 1.03862 6.40363
24 2 2.14492 0.810486 8.71285
25 2 5.91748 2.89766 9.62414
26 2 4.07212 -0.61795 11.9369
27 2 4.06295 1.48735 13.0414
28 2 3.29543 2.04798 15.7008
29 2 1.72215 0.871658 16.9901
30 2 -0.268437 2.68988 17.4899
31 2 1.85025 3.20473 0
32 2 5.55075 3.20473 2.35169
33 2 5.55075 5.34121 3.13559
34 2 5.75975 5.28496 5.56415
35 2 3.9286 4.27296 6.38052
36 2 4.02844 4.00587 8.68246
37 2 7.70611 6.10438 9.50219
38 2 5.8149 2.84401 12.0421
39 2 5.99097 5.00184 13.2172
40 2 5.20163 5.42572 15.4994
41 2 3.5809 4.07984 16.7358
42 2 1.57863 5.75467 17.1484
43 2 3.7005 0 0
44 2 7.401 0 2.35169
45 2 7.401 2.13648 3.13559
46 2 7.58187 1.95436 5.45141
47 2 5.75964 0.899879 6.41801
48 2 5.87268 0.716427 8.80538
49 2 9.57309 2.91744 9.57382
50 2 7.79461 -0.502636 12.0288
51 2 7.69016 1.61969 12.7176
52 2 7.42428 1.35633 15.0748
53 2 5.24196 0.758184 15.1872
54 2 5.02054 1.76188 17.3602
55 2 5.55075 3.20473 0
56 2 9.25125 3.20473 2.35169
57 2 9.25125 5.34121 3.13559
58 2 9.43905 5.239 5.44996
59 2 7.53792 4.07991 6.35033
60 2 7.71795 4.04662 8.59715
61 2 11.4464 6.09103 9.61966
62 2 9.63794 2.63035 11.8975
63 2 9.65819 4.80064 12.8022
64 2 9.21857 4.56791 15.061
65 2 7.10495 3.88882 15.3804
66 2 6.65249 5.11315 17.4559
67 3 -14.1925 20.5235 23.977
68 3 -19.0102 24.07 23.3933
69 3 -11.3859 20.6128 23.8063
70 3 -16.4181 22.7684 23.5305
ITEM: TIMESTEP
1200
ITEM: NUMBER OF ATOMS
70
ITEM: BOX BOUNDS xy xz yz pp pp ff
-3.7004999999999999e+00 7.4009999999999998e+00 -3.7004999999999999e+00
0.0000000000000000e+00 6.4094540134086300e+00 0.0000000000000000e+00
0.0000000000000000e+00 4.0329638543820927e+01 0.0000000000000000e+00
ITEM: ATOMS id type xu yu zu
1 1 2.995 8.25117 20.3885
2 1 4.20815 9.01844 20.3694
3 1 1.75715 10.4386 20.4219
4 1 2.97386 11.1964 20.4113
5 1 0.443241 12.471 20.3983
6 1 1.68603 13.234 20.4987
7 1 5.4474 8.23963 20.4386
8 1 6.62084 8.93141 20.3443
9 1 4.13522 10.4433 20.3023
10 1 5.3697 11.0992 20.33
11 1 2.96185 12.611 20.4306
12 1 4.2342 13.3325 20.5339
13 1 7.88908 8.31771 20.5714
14 1 9.2038 9.03178 20.5086
15 1 6.63418 10.3311 20.2769
16 1 7.85956 11.0738 20.3321
17 1 5.36843 12.561 20.338
18 1 6.64174 13.2409 20.3488
19 2 0 0 0
20 2 3.7005 0 2.35169
21 2 3.7005 2.13648 3.13559
22 2 3.90006 2.02634 5.52936
23 2 2.03268 1.04111 6.35184
24 2 2.16741 0.694682 8.78563
25 2 5.93597 2.81798 9.7462
26 2 4.1499 -0.501445 12.0375
27 2 3.98384 1.46117 13.0125
28 2 3.23357 1.97849 15.8211
29 2 1.77525 0.840904 17.0306
30 2 -0.202141 2.53608 17.4547
31 2 1.85025 3.20473 0
32 2 5.55075 3.20473 2.35169
33 2 5.55075 5.34121 3.13559
34 2 5.76451 5.41352 5.41549
35 2 3.95876 4.17281 6.3991
36 2 4.11832 3.95381 8.86702
37 2 7.69853 6.06522 9.62135
38 2 5.69351 2.86946 12.0897
39 2 6.07965 4.90289 13.2325
40 2 5.07887 5.46512 15.6529
41 2 3.47774 4.10049 16.7837
42 2 1.64143 5.71707 17.1623
43 2 3.7005 0 0
44 2 7.401 0 2.35169
45 2 7.401 2.13648 3.13559
46 2 7.45616 2.03038 5.52494
47 2 5.76077 0.891355 6.46717
48 2 5.93005 0.694663 8.815
49 2 9.66554 2.85355 9.61942
50 2 7.82794 -0.690642 12.0068
51 2 7.67809 1.57433 12.739
52 2 7.471 1.52912 15.2469
53 2 5.2404 0.683616 15.0903
54 2 5.08088 1.57358 17.366
55 2 5.55075 3.20473 0
56 2 9.25125 3.20473 2.35169
57 2 9.25125 5.34121 3.13559
58 2 9.40733 5.19011 5.59622
59 2 7.5261 4.1596 6.33131
60 2 7.76746 3.92845 8.81499
61 2 11.4781 6.01664 9.74083
62 2 9.72401 2.62964 11.9337
63 2 9.65628 4.64436 12.8197
64 2 9.31684 4.65769 15.2044
65 2 7.04675 3.85269 15.5101
66 2 6.77155 5.03282 17.6275
67 3 -14.2068 20.4138 24.0129
68 3 -19.2223 24.6003 23.8095
69 3 -11.4174 20.815 23.8083
70 3 -16.6495 22.756 23.5237
ITEM: TIMESTEP
1300
ITEM: NUMBER OF ATOMS
70
ITEM: BOX BOUNDS xy xz yz pp pp ff
-3.7004999999999999e+00 7.4009999999999998e+00 -3.7004999999999999e+00
0.0000000000000000e+00 6.4094540134086300e+00 0.0000000000000000e+00
0.0000000000000000e+00 4.0329638543820927e+01 0.0000000000000000e+00
ITEM: ATOMS id type xu yu zu
1 1 2.94522 8.32336 20.3718
2 1 4.20527 9.05353 20.4203
3 1 1.76466 10.4117 20.4216
4 1 3.02635 11.0765 20.4693
5 1 0.604722 12.6152 20.2624