ITEM: TIMESTEP
0
ITEM: NUMBER OF ATOMS
69
ITEM: BOX BOUNDS xy xz yz pp pp ff
-3.7004999999999999e+00 7.4009999999999998e+00 -3.7004999999999999e+00
0.0000000000000000e+00 6.4094540134086300e+00 0.0000000000000000e+00
0.0000000000000000e+00 4.0329638543820927e+01 0.0000000000000000e+00
ITEM: ATOMS id type xu yu zu
1 1 0.131532 -0.300025 20.2989
2 1 1.35284 0.506305 20.0469
3 1 -1.02685 1.8445 20.5321
4 1 0.177466 2.54728 20.1804
5 1 -2.41055 4.07324 19.8479
6 1 -1.27427 4.66802 20.4683
7 1 2.52185 -0.361814 20.5949
8 1 3.79653 0.283839 20.7547
9 1 1.2837 1.79096 19.9184
10 1 0.150284 4.03484 20.0897
11 1 1.35766 4.83026 20.058
12 1 5.14151 -0.30242 20.5815
13 1 6.3307 0.409948 20.5252
14 1 3.97199 1.82044 20.8712
15 1 5.13726 2.61392 20.5529
16 1 2.50964 4.31738 19.5901
17 1 3.78265 4.77357 19.8722
18 2 0 0 0
19 2 3.7005 0 2.35169
20 2 3.7005 2.13648 3.13559
21 2 3.72894 2.20661 5.45742
22 2 1.94886 1.06211 6.30774
23 2 1.93725 1.24196 8.69707
24 2 5.66422 3.23485 9.56739
25 2 3.76802 0.127995 12.0313
26 2 3.72204 2.31739 12.8085
27 2 3.78271 2.0926 15.1451
28 2 1.84318 1.08157 16.1389
29 2 2.47332 1.12218 18.3753
30 2 1.85025 3.20473 0
31 2 5.55075 3.20473 2.35169
32 2 5.55075 5.34121 3.13559
33 2 5.66676 5.34932 5.5458
34 2 3.75893 4.44518 6.37901
35 2 3.81108 4.36699 8.74013
36 2 7.51204 6.54269 9.60434
37 2 5.67927 3.33291 11.9221
38 2 5.641 5.4551 12.9097
39 2 5.65168 5.32952 15.2759
40 2 3.88076 4.19651 16.1476
41 2 3.66162 3.32685 18.4029
42 2 3.7005 0 0
43 2 7.401 0 2.35169
44 2 7.401 2.13648 3.13559
45 2 7.45784 2.10869 5.49354
46 2 5.52833 1.14678 6.39497
47 2 5.67309 1.08674 8.80476
48 2 9.33322 3.35038 9.62332
49 2 7.50245 0.0591325 12.0224
50 2 7.47927 2.17243 12.8342
51 2 7.44988 2.23394 15.2502
52 2 5.60249 1.05306 16.0369
53 2 4.82968 1.07582 18.2253
54 2 5.55075 3.20473 0
55 2 9.25125 3.20473 2.35169
56 2 9.25125 5.34121 3.13559
57 2 9.31667 5.39164 5.59581
58 2 7.46789 4.25946 6.44661
59 2 7.5304 4.40099 8.77763
60 2 11.3214 6.47872 9.7459
61 2 9.16741 3.32829 11.9779
62 2 9.33918 5.4968 12.7986
63 2 9.37486 5.26397 15.2212
64 2 7.51418 4.42134 16.2489
65 2 7.53655 5.37634 18.3588
66 3 3.08861 3.89223 22.9498
67 3 4.16018 10.7688 23.7556
68 3 9.20583 6.94956 23.8387
69 3 4.79335 7.75778 23.2805
ITEM: TIMESTEP
100
ITEM: NUMBER OF ATOMS
69
ITEM: BOX BOUNDS xy xz yz pp pp ff
-3.7004999999999999e+00 7.4009999999999998e+00 -3.7004999999999999e+00
0.0000000000000000e+00 6.4094540134086300e+00 0.0000000000000000e+00
0.0000000000000000e+00 4.0329638543820927e+01 0.0000000000000000e+00
ITEM: ATOMS id type xu yu zu
1 1 0.0612384 -0.32482 20.1849
2 1 1.3142 0.444211 20.1211
3 1 -1.02783 1.85901 20.5352
4 1 0.158906 2.53358 20.2048
5 1 -2.30858 4.0852 20.0028
6 1 -1.23408 4.74191 20.5833
7 1 2.51619 -0.294193 20.6534
8 1 3.84906 0.32265 20.7453
9 1 1.14657 1.72644 19.7541
10 1 0.0781523 3.99605 20.0713
11 1 1.36143 4.76407 20.0529
12 1 5.13925 -0.323205 20.5649
13 1 6.30492 0.411478 20.5933
14 1 3.91876 1.85117 20.8348
15 1 5.15209 2.60063 20.6395
16 1 2.4732 4.20744 19.5723
17 1 3.7643 4.79074 19.6697
18 2 0 0 0
19 2 3.7005 0 2.35169
20 2 3.7005 2.13648 3.13559
21 2 3.78027 2.199 5.43274
22 2 1.92204 1.14507 6.35235
23 2 2.0112 1.27699 8.67547
24 2 5.67481 3.24853 9.66471
25 2 3.78652 0.142162 11.9378
26 2 3.81337 2.24051 12.7976
27 2 3.73178 2.09863 15.1232
28 2 1.82806 1.06783 16.0825
29 2 2.39308 1.10194 18.4233
30 2 1.85025 3.20473 0
31 2 5.55075 3.20473 2.35169
32 2 5.55075 5.34121 3.13559
33 2 5.68128 5.35194 5.47625
34 2 3.82997 4.2759 6.30245
35 2 3.79574 4.39525 8.73694
36 2 7.47014 6.53447 9.61233
37 2 5.7015 3.32151 11.9527
38 2 5.63377 5.43202 12.8436
39 2 5.59418 5.38803 15.2998
40 2 3.79489 4.148 16.1281
41 2 3.79447 3.30159 18.4713
42 2 3.7005 0 0
43 2 7.401 0 2.35169
44 2 7.401 2.13648 3.13559
45 2 7.41051 2.17634 5.54003
46 2 5.5493 1.07321 6.3638
47 2 5.73065 1.12657 8.69855
48 2 9.34123 3.38565 9.57164
49 2 7.46749 0.161945 12.0402
50 2 7.44051 2.26064 12.9444
51 2 7.44191 2.2397 15.2908
52 2 5.66317 1.03621 16.0665
53 2 4.87389 1.06463 18.2439
54 2 5.55075 3.20473 0
55 2 9.25125 3.20473 2.35169
56 2 9.25125 5.34121 3.13559
57 2 9.24764 5.36981 5.46342
58 2 7.45152 4.30867 6.48245
59 2 7.43369 4.39459 8.79362
60 2 11.2952 6.49349 9.53798
61 2 9.34171 3.30235 11.9437
62 2 9.27943 5.3918 12.8873
63 2 9.32452 5.27216 15.2843
64 2 7.44298 4.31732 16.2982
65 2 7.50196 5.39216 18.4003
66 3 3.08685 3.7947 22.886
67 3 4.21331 10.8969 23.8002
68 3 9.28006 7.21796 23.8507
69 3 4.68252 7.80372 23.3958
ITEM: TIMESTEP
200
ITEM: NUMBER OF ATOMS
69
ITEM: BOX BOUNDS xy xz yz pp pp ff
-3.7004999999999999e+00 7.4009999999999998e+00 -3.7004999999999999e+00
0.0000000000000000e+00 6.4094540134086300e+00 0.0000000000000000e+00
0.0000000000000000e+00 4.0329638543820927e+01 0.0000000000000000e+00
ITEM: ATOMS id type xu yu zu
1 1 0.0136372 -0.31477 20.2051
2 1 1.26373 0.465617 19.9703
3 1 -1.08517 1.79585 20.561
4 1 0.0940863 2.56152 20.1603
5 1 -2.34124 4.07275 19.8964
6 1 -1.26151 4.70871 20.5745
7 1 2.48643 -0.30182 20.6933
8 1 3.75789 0.289414 20.8705
9 1 1.09922 1.7493 19.8317
10 1 0.0365232 4.04551 20.1823
11 1 1.36325 4.73858 20.0402
12 1 5.03898 -0.370302 20.6174
13 1 6.22304 0.396191 20.6058
14 1 3.9611 1.83299 20.8391
15 1 5.15889 2.58694 20.6271
16 1 2.47565 4.26788 19.4502
17 1 3.76589 4.8115 19.658
18 2 0 0 0
19 2 3.7005 0 2.35169
20 2 3.7005 2.13648 3.13559
21 2 3.75928 2.10915 5.55669
22 2 1.86631 1.18891 6.36507
23 2 2.00195 1.17763 8.7211
24 2 5.58096 3.3155 9.62495
25 2 3.7852 0.0319495 11.8908
26 2 3.87756 2.17411 12.6968
27 2 3.74525 2.07569 15.037
28 2 1.86056 1.07742 16.1126
29 2 2.4878 1.01134 18.3429
30 2 1.85025 3.20473 0
31 2 5.55075 3.20473 2.35169
32 2 5.55075 5.34121 3.13559
33 2 5.56894 5.46718 5.48058
34 2 3.76228 4.26098 6.35374
35 2 3.88462 4.33536 8.643
36 2 7.53967 6.56274 9.56067
37 2 5.61785 3.31781 12.0833
38 2 5.61799 5.47632 12.857
39 2 5.57795 5.28753 15.2172
40 2 3.6828 4.17326 16.1087
41 2 3.94156 3.31727 18.3056
42 2 3.7005 0 0
43 2 7.401 0 2.35169
44 2 7.401 2.13648 3.13559
45 2 7.41259 2.22747 5.53991
46 2 5.70688 1.01442 6.32938
47 2 5.64778 1.1779 8.66687
48 2 9.35091 3.36896 9.59226
49 2 7.42236 0.107688 11.9337
50 2 7.55092 2.37654 12.9748
51 2 7.41932 2.20337 15.4033
52 2 5.61301 1.00419 16.0932
53 2 4.86032 1.1117 18.2668
54 2 5.55075 3.20473 0
55 2 9.25125 3.20473 2.35169
56 2 9.25125 5.34121 3.13559
57 2 9.32519 5.27784 5.44863
58 2 7.4633 4.34087 6.33954
59 2 7.39981 4.38584 8.78889
60 2 11.2102 6.61481 9.4887
61 2 9.49747 3.26603 11.9369
62 2 9.30262 5.33248 12.9647
63 2 9.23396 5.32663 15.3593
64 2 7.37754 4.37173 16.2412
65 2 7.48717 5.32329 18.3657
66 3 3.00613 3.76521 23.0053
67 3 4.18524 11.1274 23.7603
68 3 9.27886 7.48194 23.8304
69 3 4.75136 7.83745 23.4573
ITEM: TIMESTEP
300
ITEM: NUMBER OF ATOMS
69
ITEM: BOX BOUNDS xy xz yz pp pp ff
-3.7004999999999999e+00 7.4009999999999998e+00 -3.7004999999999999e+00
0.0000000000000000e+00 6.4094540134086300e+00 0.0000000000000000e+00
0.0000000000000000e+00 4.0329638543820927e+01 0.0000000000000000e+00
ITEM: ATOMS id type xu yu zu
1 1 0.028946 -0.302849 20.2355
2 1 1.29395 0.45133 20.0124
3 1 -1.11296 1.8327 20.5722
4 1 0.230583 2.50537 20.3014
5 1 -2.40912 4.09578 19.7834
6 1 -1.27756 4.6017 20.5356
7 1 2.47069 -0.378419 20.6145
8 1 3.77382 0.189826 20.8409
9 1 1.18476 1.73681 19.7464
10 1 0.089341 3.85059 20.0525
11 1 1.35885 4.7596 20.0401
12 1 5.0379 -0.376548 20.6642
13 1 6.18982 0.410829 20.5896
14 1 4.00474 1.77752 20.8949
15 1 5.09086 2.59459 20.605
16 1 2.48887 4.21244 19.5252
17 1 3.74388 4.84561 19.7694
18 2 0 0 0
19 2 3.7005 0 2.35169
20 2 3.7005 2.13648 3.13559
21 2 3.82518 2.03093 5.54244
22 2 1.85893 1.13767 6.42775
23 2 1.8846 1.18536 8.77114
24 2 5.63076 3.32329 9.64685
25 2 3.85285 -0.14544 11.9363
26 2 3.82377 2.01097 12.6868
27 2 3.7411 2.08656 15.0023
28 2 1.91857 0.957282 16.076
29 2 2.45708 1.04564 18.3915
30 2 1.85025 3.20473 0
31 2 5.55075 3.20473 2.35169
32 2 5.55075 5.34121 3.13559
33 2 5.5003 5.44511 5.54189
34 2 3.78435 4.28682 6.38523
35 2 3.72904 4.47494 8.71646
36 2 7.5596 6.43225 9.52268
37 2 5.75256 3.38369 11.958
38 2 5.52335 5.51034 12.8356
39 2 5.47397 5.30276 15.1672
40 2 3.75229 4.22171 15.9729
41 2 3.75022 3.45478 18.2926
42 2 3.7005 0 0
43 2 7.401 0 2.35169
44 2 7.401 2.13648 3.13559
45 2 7.48196 2.24347 5.39316
46 2 5.66208 1.04967 6.34027
47 2 5.57521 1.27778 8.68114
48 2 9.36315 3.28939 9.56222
49 2 7.4159 0.16524 11.9507
50 2 7.64374 2.21101 12.8862
51 2 7.44968 2.16613 15.4321
52 2 5.49677 1.11407 16.1541
53 2 4.73602 1.07263 18.2877
54 2 5.55075 3.20473 0
55 2 9.25125 3.20473 2.35169
56 2 9.25125 5.34121 3.13559
57 2 9.38156 5.30848 5.53833
58 2 7.34572 4.42541 6.32078
59 2 7.5547 4.37496 8.6344
60 2 11.1165 6.49716 9.63438
61 2 9.38364 3.295 11.9389
62 2 9.39287 5.397 12.8595
63 2 9.22715 5.30675 15.295
64 2 7.36832 4.35806 16.2278
65 2 7.53786 5.32694 18.4644
66 3 3.01385 3.76651 23.1994
67 3 4.04579 11.533 23.6811
68 3 9.22759 7.74281 23.7829
69 3 4.84266 7.84991 23.4487
ITEM: TIMESTEP
400
ITEM: NUMBER OF ATOMS
69
ITEM: BOX BOUNDS xy xz yz pp pp ff
-3.7004999999999999e+00 7.4009999999999998e+00 -3.7004999999999999e+00
0.0000000000000000e+00 6.4094540134086300e+00 0.0000000000000000e+00
0.0000000000000000e+00 4.0329638543820927e+01 0.0000000000000000e+00
ITEM: ATOMS id type xu yu zu
1 1 0.144618 -0.445812 20.2718
2 1 1.30121 0.354615 20.1094
3 1 -1.04503 1.80225 20.4765
4 1 0.0958301 2.56804 20.0329
5 1 -2.4856 4.0051 19.8449
6 1 -1.25243 4.58762 20.4403
7 1 2.55462 -0.459691 20.5667
8 1 3.80119 0.221654 20.7718
9 1 1.13865 1.65853 19.93
10 1 0.0749157 3.98633 20.1895
11 1 1.30674 4.73689 20.2215
12 1 5.06682 -0.317459 20.5415
13 1 6.35126 0.415351 20.5065
14 1 3.93078 1.76269 20.9808
15 1 5.04118 2.61495 20.6935
16 1 2.36257 4.29967 19.5596
17 1 3.74967 4.79077 19.6463
18 2 0 0 0
19 2 3.7005 0 2.35169
20 2 3.7005 2.13648 3.13559
21 2 3.73877 2.19028 5.44089
22 2 1.90994 1.13687 6.43146
23 2 1.85301 1.03832 8.81165
24 2 5.70369 3.48563 9.5101
25 2 3.77421 -0.123413 11.8717
26 2 3.86789 2.14289 12.6374
27 2 3.70391 2.1051 15.09
28 2 1.83473 1.00796 16.0933
29 2 2.36158 1.10158 18.3785
30 2 1.85025 3.20473 0
31 2 5.55075 3.20473 2.35169
32 2 5.55075 5.34121 3.13559
33 2 5.53746 5.37988 5.47778
34 2 3.78761 4.1566 6.452
35 2 3.70964 4.3801 8.8829
36 2 7.37581 6.44025 9.56775
37 2 5.76435 3.2101 11.8789
38 2 5.58402 5.33543 12.7871
39 2 5.62717 5.3291 15.1613
40 2 3.67777 4.18171 15.9343
41 2 3.53212 3.33801 18.3136
42 2 3.7005 0 0
43 2 7.401 0 2.35169
44 2 7.401 2.13648 3.13559
45 2 7.47098 2.22931 5.51671
46 2 5.65774 1.19786 6.38236
47 2 5.62667 1.20723 8.76274
48 2 9.34109 3.21973 9.58756
49 2 7.5041 0.123841 12.0108
50 2 7.4419 2.18092 12.9376
51 2 7.47471 2.15994 15.2983
52 2 5.56725 1.08727 16.1018
53 2 4.66113 1.10187 18.2447
54 2 5.55075 3.20473 0
55 2 9.25125 3.20473 2.35169
56 2 9.25125 5.34121 3.13559
57 2 9.21627 5.44624 5.501
58 2 7.42927 4.34029 6.29802
59 2 7.55112 4.24977 8.58101
60 2 11.0258 6.5702 9.70305
61 2 9.35326 3.22906 11.913
62 2 9.43209 5.37697 12.8498
63 2 9.28295 5.38847 15.1562
64 2 7.44655 4.31952 16.2619
65 2 7.53021 5.34772 18.313
66 3 2.85677 3.81106 23.4005
67 3 4.03852 11.9094 23.5791
68 3 9.19458 7.95681 23.7638
69 3 4.939 8.04112 23.383
ITEM: TIMESTEP
500
ITEM: NUMBER OF ATOMS
69
ITEM: BOX BOUNDS xy xz yz pp pp ff
-3.7004999999999999e+00 7.4009999999999998e+00 -3.7004999999999999e+00
0.0000000000000000e+00 6.4094540134086300e+00 0.0000000000000000e+00
0.0000000000000000e+00 4.0329638543820927e+01 0.0000000000000000e+00
ITEM: ATOMS id type xu yu zu
1 1 -0.0210566 -0.301179 20.1649
2 1 1.17536 0.40385 20.2828
3 1 -1.08053 1.81764 20.4381
4 1 0.160923 2.52478 20.2674
5 1 -2.43442 3.98175 19.9255
6 1 -1.25934 4.68801 20.4336
7 1 2.36105 -0.351801 20.609
8 1 3.71042 0.283989 20.7165
9 1 1.20494 1.64276 20.0139
10 1 -0.025853 4.0296 20.0505
11 1 1.25082 4.72025 19.9547
12 1 5.04551 -0.323073 20.5923
13 1 6.20683 0.473987 20.3909
14 1 3.94217 1.84848 20.8764
15 1 5.03252 2.65133 20.5449
16 1 2.41729 4.08612 19.6566
17 1 3.68011 4.71006 19.8656
18 2 0 0 0
19 2 3.7005 0 2.35169
20 2 3.7005 2.13648 3.13559
21 2 3.66125 2.23437 5.50936
22 2 1.92239 1.04587 6.34299
23 2 1.82979 1.01544 8.69781
24 2 5.61468 3.26576 9.49146
25 2 3.7371 0.108515 11.9048
26 2 3.77048 2.18987 12.7086
27 2 3.71885 2.05976 14.9862
28 2 1.74235 1.08881 16.1083
29 2 2.31084 1.04327 18.3379
30 2 1.85025 3.20473 0
31 2 5.55075 3.20473 2.35169
32 2 5.55075 5.34121 3.13559
33 2 5.56622 5.34451 5.50349
34 2 3.57388 4.43369 6.45922
35 2 3.75588 4.30119 8.77934
36 2 7.44452 6.4236 9.55627
37 2 5.57995 3.1285 11.8201
38 2 5.80344 5.14718 12.8321
39 2 5.74499 5.20832 15.2498
40 2 3.70439 4.2191 16.0555
41 2 3.54601 3.18215 18.3452
42 2 3.7005 0 0
43 2 7.401 0 2.35169
44 2 7.401 2.13648 3.13559
45 2 7.48535 2.09428 5.59081
46 2 5.51793 1.22487 6.42338
47 2 5.45721 1.15496 8.77285
48 2 9.28483 3.1025 9.66183
49 2 7.56315 -0.0726054 12.0818
50 2 7.45156 2.2564 12.9405
51 2 7.35918 2.24341 15.235
52 2 5.65796 1.04314 16.0061
53 2 4.65951 1.06601 18.1303
54 2 5.55075 3.20473 0
55 2 9.25125 3.20473 2.35169
56 2 9.25125 5.34121 3.13559
57 2 9.34078 5.50936 5.48714
58 2 7.52621 4.29848 6.2432
59 2 7.54069 4.38265 8.68499
60 2 11.1073 6.50207 9.6845
61 2 9.30553 3.15266 11.9989
62 2 9.26687 5.28913 12.7575
63 2 9.27959 5.36889 15.1621
64 2 7.60973 4.3379 16.1037
65 2 7.50132 5.43104 18.2545
66 3 2.85394 4.09956 23.4716
67 3 3.93667 12.2152 23.5958
68 3 9.22604 8.23724 23.8275
69 3 4.93988 8.08243 23.2557
ITEM: TIMESTEP
600
ITEM: NUMBER OF ATOMS
69
ITEM: BOX BOUNDS xy xz yz pp pp ff
-3.7004999999999999e+00 7.4009999999999998e+00 -3.7004999999999999e+00
0.0000000000000000e+00 6.4094540134086300e+00 0.0000000000000000e+00
0.0000000000000000e+00 4.0329638543820927e+01 0.0000000000000000e+00
ITEM: ATOMS id type xu yu zu
1 1 -0.0413874 -0.262915 20.379
2 1 1.18705 0.429968 20.1871
3 1 -1.09111 1.73511 20.5476
4 1 0.0630286 2.56266 20.2071
5 1 -2.47492 4.03465 20.0555
6 1 -1.32824 4.64511 20.5029
7 1 2.38911 -0.34874 20.6788
8 1 3.67663 0.297082 20.5863
9 1 1.08978 1.70182 19.9677
10 1 -0.000618099 3.99666 19.922
11 1 1.25254 4.77032 19.9976
12 1 4.92421 -0.321461 20.4601
13 1 6.14869 0.37949 20.5345
14 1 3.84017 1.84802 20.6784
15 1 5.05139 2.58102 20.5318
16 1 2.37584 4.26327 19.6125
17 1 3.64452 4.8166 19.9345
18 2 0 0 0
19 2 3.7005 0 2.35169
20 2 3.7005 2.13648 3.13559
21 2 3.65297 2.32577 5.57626
22 2 1.88302 0.987888 6.32491
23 2 1.85101 1.07402 8.63143
24 2 5.58992 3.11508 9.54199
25 2 3.78835 0.0300011 11.8991
26 2 3.60732 2.12887 12.8051
27 2 3.7018 2.10339 15.1047
28 2 1.7946 0.969712 15.9912
29 2 2.29645 1.03291 18.3759
30 2 1.85025 3.20473 0
31 2 5.55075 3.20473 2.35169
32 2 5.55075 5.34121 3.13559
33 2 5.61291 5.2369 5.53016
34 2 3.69985 4.49452 6.38522
35 2 3.6146 4.30684 8.70182
36 2 7.40996 6.42981 9.58901
37 2 5.58374 3.15371 11.8541
38 2 5.76983 5.25596 12.9342
39 2 5.57864 5.26983 15.3115
40 2 3.84754 4.12128 16.1508
41 2 3.6592 3.30853 18.4
42 2 3.7005 0 0
43 2 7.401 0 2.35169
44 2 7.401 2.13648 3.13559
45 2 7.40066 2.11177 5.4393
46 2 5.4175 1.1902 6.4037
47 2 5.58128 1.02254 8.671
48 2 9.23495 3.19062 9.56819
49 2 7.54198 -0.149333 12.1044
50 2 7.44111 1.97387 12.7501
51 2 7.38896 2.25871 15.2501
52 2 5.48861 1.06819 15.9875
53 2 4.77089 1.03317 18.1354
54 2 5.55075 3.20473 0
55 2 9.25125 3.20473 2.35169
56 2 9.25125 5.34121 3.13559
57 2 9.2294 5.54363 5.44831
58 2 7.49574 4.28888 6.40048
59 2 7.46813 4.25695 8.717
60 2 11.1596 6.28139 9.65126
61 2 9.16686 3.21807 11.9379
62 2 9.23094 5.36923 12.7489
63 2 9.48895 5.29102 15.0985
64 2 7.57138 4.41354 16.1705
65 2 7.37179 5.25747 18.2483
66 3 2.76088 4.31201 23.3952
67 3 3.93776 12.5207 23.7136
68 3 9.25327 8.52622 23.7991
69 3 4.98104 8.21704 23.2827
ITEM: TIMESTEP
700
ITEM: NUMBER OF ATOMS
69
ITEM: BOX BOUNDS xy xz yz pp pp ff
-3.7004999999999999e+00 7.4009999999999998e+00 -3.7004999999999999e+00
0.0000000000000000e+00 6.4094540134086300e+00 0.0000000000000000e+00
0.0000000000000000e+00 4.0329638543820927e+01 0.0000000000000000e+00
ITEM: ATOMS id type xu yu zu
1 1 -0.0477098 -0.387024 20.4138
2 1 1.15377 0.355335 20.1231
3 1 -1.1887 1.77024 20.52
4 1 -0.0784802 2.47911 20.0452
5 1 -2.47812 4.01028 19.9741
6 1 -1.36323 4.66996 20.5867
7 1 2.35817 -0.312158 20.6211
8 1 3.69698 0.221624 20.7283
9 1 0.968431 1.57277 19.7257
10 1 -0.00690979 3.84875 20.1249
11 1 1.21059 4.77857 19.9852
12 1 4.98391 -0.327828 20.6406
13 1 6.18682 0.430758 20.6737
14 1 3.71614 1.83443 20.7338
15 1 4.94213 2.47417 20.6506
16 1 2.3557 4.31234 19.4462
17 1 3.61915 4.80045 19.7906
18 2 0 0 0
19 2 3.7005 0 2.35169
20 2 3.7005 2.13648 3.13559
21 2 3.58893 2.25848 5.45342
22 2 1.79263 1.12062 6.31385
23 2 1.8478 1.0497 8.75693
24 2 5.48003 3.15514 9.57955
25 2 3.70085 -0.0796582 11.9284
26 2 3.64679 2.16185 12.7176
27 2 3.57414 2.11179 15.1647
28 2 1.80975 1.06485 16.074
29 2 2.42517 1.11438 18.3083
30 2 1.85025 3.20473 0
31 2 5.55075 3.20473 2.35169
32 2 5.55075 5.34121 3.13559
33 2 5.68287 5.33889 5.45522
34 2 3.74791 4.31854 6.34242
35 2 3.72338 4.14169 8.70479
36 2 7.35814 6.39011 9.53602
37 2 5.57318 3.13128 12.0666
38 2 5.58181 5.3193 12.9085
39 2 5.58631 5.3019 15.2367
40 2 3.82534 4.09318 16.2021
41 2 3.72471 3.44092 18.4436
42 2 3.7005 0 0
43 2 7.401 0 2.35169
44 2 7.401 2.13648 3.13559
45 2 7.33882 2.18649 5.46918
46 2 5.52826 1.17618 6.28052
47 2 5.72803 0.886112 8.72478
48 2 9.20942 3.21308 9.50246
49 2 7.48111 -0.198765 11.8663
50 2 7.31928 1.94537 12.7803
51 2 7.45387 2.11737 15.1847
52 2 5.55106 1.01977 15.9209
53 2 4.74473 1.01585 18.1274
54 2 5.55075 3.20473 0
55 2 9.25125 3.20473 2.35169
56 2 9.25125 5.34121 3.13559
57 2 9.09185 5.40624 5.49046
58 2 7.43223 4.19119 6.45973
59 2 7.25411 4.16049 8.76705
60 2 11.2089 6.31885 9.6187
61 2 9.12401 3.22475 11.8064
62 2 9.36395 5.31789 12.8739
63 2 9.47347 5.25434 15.2152
64 2 7.50708 4.37622 16.1468
65 2 7.38036 5.3605 18.3971
66 3 2.69805 4.39125 23.2171
67 3 4.06768 12.8161 23.8675
68 3 9.21134 8.83927 23.671
69 3 4.97623 8.43735 23.3896
ITEM: TIMESTEP
800
ITEM: NUMBER OF ATOMS
69
ITEM: BOX BOUNDS xy xz yz pp pp ff
-3.7004999999999999e+00 7.4009999999999998e+00 -3.7004999999999999e+00
0.0000000000000000e+00 6.4094540134086300e+00 0.0000000000000000e+00
0.0000000000000000e+00 4.0329638543820927e+01 0.0000000000000000e+00
ITEM: ATOMS id type xu yu zu
1 1 -0.16154 -0.327049 20.2794
2 1 1.09273 0.431259 19.9791
3 1 -1.18119 1.76637 20.5939
4 1 0.0122561 2.48915 20.1673
5 1 -2.40414 3.97 19.8436
6 1 -1.3157 4.65909 20.4726
7 1 2.29528 -0.362537 20.6421
8 1 3.55242 0.303872 20.8108
9 1 1.06254 1.71388 19.7159
10 1 -0.0237762 3.98501 20.0881
11 1 1.22786 4.70801 20.1123
12 1 4.84914 -0.401936 20.6488
13 1 6.07488 0.378416 20.6351
14 1 3.84907 1.80369 20.9203
15 1 4.9954 2.64293 20.6476
16 1 2.28473 4.20804 19.5589
17 1 3.54035 4.79956 19.6677
18 2 0 0 0
19 2 3.7005 0 2.35169
20 2 3.7005 2.13648 3.13559
21 2 3.67545 2.03829 5.42778
22 2 1.78438 1.13984 6.41889
23 2 1.88273 1.04868 8.69911
24 2 5.45612 2.91483 9.79491
25 2 3.70873 -0.0813057 11.9994
26 2 3.60605 2.06353 12.7135
27 2 3.67324 2.0471 15.0033
28 2 1.77828 1.04031 16.1554
29 2 2.3754 1.17265 18.4374
30 2 1.85025 3.20473 0
31 2 5.55075 3.20473 2.35169
32 2 5.55075 5.34121 3.13559
33 2 5.53702 5.50499 5.50167
34 2 3.64784 4.27317 6.28823
35 2 3.76103 4.16631 8.6406
36 2 7.49459 6.2895 9.58674
37 2 5.49893 3.16167 12.0322
38 2 5.50095 5.25215 12.8022
39 2 5.66689 5.30361 15.2235
40 2 3.82416 4.22693 16.1289
41 2 3.75049 3.28968 18.37
42 2 3.7005 0 0
43 2 7.401 0 2.35169
44 2 7.401 2.13648 3.13559
45 2 7.367 2.11785 5.51268
46 2 5.50147 0.991382 6.3496
47 2 5.50171 0.996146 8.69407
48 2 9.17738 3.15245 9.54149
49 2 7.36011 -0.0558966 11.8507
50 2 7.41453 2.09732 12.8585
51 2 7.38981 2.14078 15.1754
52 2 5.58408 0.997312 15.9993
53 2 4.71818 1.01924 18.2085
54 2 5.55075 3.20473 0
55 2 9.25125 3.20473 2.35169
56 2 9.25125 5.34121 3.13559
57 2 9.28923 5.25591 5.56635
58 2 7.2997 4.28342 6.39177
59 2 7.25546 4.26557 8.77689
60 2 11.1805 6.27082 9.46132
61 2 9.17089 3.10673 11.9211
62 2 9.26745 5.17816 12.8678
63 2 9.23882 5.25113 15.3851
64 2 7.44117 4.25679 16.1719
65 2 7.48215 5.31402 18.2928
66 3 2.75748 4.55999 23.0295
67 3 4.11949 13.0646 24.0101
68 3 9.19001 9.19921 23.6096
69 3 4.94762 8.46045 23.3957
ITEM: TIMESTEP
900
ITEM: NUMBER OF ATOMS
69
ITEM: BOX BOUNDS xy xz yz pp pp ff
-3.7004999999999999e+00 7.4009999999999998e+00 -3.7004999999999999e+00
0.0000000000000000e+00 6.4094540134086300e+00 0.0000000000000000e+00
0.0000000000000000e+00 4.0329638543820927e+01 0.0000000000000000e+00
ITEM: ATOMS id type xu yu zu
1 1 -0.120645 -0.289379 20.0855
2 1 1.20643 0.475421 19.9938
3 1 -1.21022 1.81446 20.5606
4 1 -0.0125379 2.54662 20.3644
5 1 -2.46166 3.9879 19.7899
6 1 -1.42008 4.69668 20.4889
7 1 2.40806 -0.353098 20.5491
8 1 3.6747 0.283324 20.7456
9 1 1.04683 1.73427 20.0016
10 1 -0.0785791 3.99454 20.1
11 1 1.20377 4.70137 20.1427
12 1 4.98911 -0.395743 20.6198
13 1 6.11989 0.360053 20.5808
14 1 3.87786 1.73827 20.9339
15 1 5.00856 2.66204 20.6104
16 1 2.34132 4.13289 19.6383
17 1 3.58132 4.84119 19.578
18 2 0 0 0
19 2 3.7005 0 2.35169
20 2 3.7005 2.13648 3.13559
21 2 3.77704 2.02374 5.55898
22 2 1.84998 1.12265 6.42209
23 2 1.91935 0.964946 8.75654
24 2 5.56353 3.08517 9.63552
25 2 3.70005 -0.200417 11.9648
26 2 3.66877 1.94298 12.7773
27 2 3.78787 2.06248 15.1013
28 2 1.82423 0.992147 16.0549
29 2 2.28585 1.15325 18.339
30 2 1.85025 3.20473 0
31 2 5.55075 3.20473 2.35169
32 2 5.55075 5.34121 3.13559
33 2 5.35556 5.35823 5.52415
34 2 3.78694 4.08586 6.34585
35 2 3.6701 4.1304 8.70972
36 2 7.373 6.30861 9.72137
37 2 5.49503 3.09503 11.9955
38 2 5.46005 5.32707 12.7868
39 2 5.5899 5.31104 15.1973
40 2 3.74093 4.16702 15.952
41 2 3.68891 3.28699 18.4113
42 2 3.7005 0 0
43 2 7.401 0 2.35169
44 2 7.401 2.13648 3.13559
45 2 7.28935 2.14216 5.53502
46 2 5.53478 0.879386 6.4154
47 2 5.48896 0.939822 8.68591
48 2 9.20772 3.18315 9.594
49 2 7.26852 0.0247659 12.0034
50 2 7.36231 2.12338 12.8659
51 2 7.35641 2.12499 15.3248
52 2 5.47416 1.03285 16.1748
53 2 4.72391 1.02038 18.2366
54 2 5.55075 3.20473 0
55 2 9.25125 3.20473 2.35169
56 2 9.25125 5.34121 3.13559
57 2 9.21167 5.21419 5.4585
58 2 7.26042 4.34025 6.34275
59 2 7.3168 4.09225 8.73848
60 2 11.0137 6.33916 9.43806
61 2 9.26125 3.07502 11.963
62 2 9.15472 5.21816 12.9226
63 2 9.20555 5.26046 15.274
64 2 7.33978 4.18499 16.275
65 2 7.4087 5.26647 18.2934
66 3 2.64983 4.58882 23.0972
67 3 4.16959 13.406 23.9667
68 3 9.17707 9.46697 23.6355
69 3 5.17486 8.51484 23.3464
ITEM: TIMESTEP
1000
ITEM: NUMBER OF ATOMS
69
ITEM: BOX BOUNDS xy xz yz pp pp ff
-3.7004999999999999e+00 7.4009999999999998e+00 -3.7004999999999999e+00
0.0000000000000000e+00 6.4094540134086300e+00 0.0000000000000000e+00
0.0000000000000000e+00 4.0329638543820927e+01 0.0000000000000000e+00
ITEM: ATOMS id type xu yu zu
1 1 -0.053574 -0.314603 20.2161
2 1 1.19709 0.427136 20.1546
3 1 -1.14688 1.80861 20.561
4 1 0.0449706 2.49132 20.208
5 1 -2.46972 3.97242 19.9752
6 1 -1.38931 4.68769 20.6163
7 1 2.42403 -0.339687 20.6956
8 1 3.77524 0.238042 20.867
9 1 1.10878 1.67965 19.8224
10 1 0.0282552 3.90602 20.2325
11 1 1.2175 4.78735 20.0378
12 1 5.03915 -0.318399 20.5808
13 1 6.15973 0.371072 20.4768
14 1 3.79254 1.72298 20.8159
15 1 4.97072 2.56565 20.5447
16 1 2.24975 4.34211 19.3626
17 1 3.61733 4.80461 19.6162
18 2 0 0 0
19 2 3.7005 0 2.35169
20 2 3.7005 2.13648 3.13559
21 2 3.73981 1.98032 5.51131
22 2 1.78161 1.00679 6.3557
23 2 1.72304 0.975213 8.84775
24 2 5.50954 3.22082 9.4346
25 2 3.56418 -0.214577 11.9927
26 2 3.77876 1.9443 12.8365
27 2 3.66226 2.02679 15.1706
28 2 1.82875 1.03024 15.9702
29 2 2.33001 1.05746 18.3727
30 2 1.85025 3.20473 0
31 2 5.55075 3.20473 2.35169
32 2 5.55075 5.34121 3.13559
33 2 5.47857 5.27972 5.46233
34 2 3.60448 4.08033 6.51725
35 2 3.63523 4.19584 8.82133
36 2 7.26299 6.17295 9.57395
37 2 5.5012 3.15536 11.9093
38 2 5.39316 5.26596 12.8664
39 2 5.46362 5.21241 15.1538
40 2 3.59889 4.12955 15.9721
41 2 3.57202 3.37265 18.2752
42 2 3.7005 0 0
43 2 7.401 0 2.35169
44 2 7.401 2.13648 3.13559
45 2 7.35713 2.14068 5.52391
46 2 5.63637 0.875419 6.35848
47 2 5.47057 0.938889 8.81979
48 2 9.26692 3.0201 9.6771
49 2 7.25245 -0.0718483 11.9999
50 2 7.30265 2.10306 12.9808
51 2 7.33406 2.03403 15.4061
52 2 5.56297 0.914429 16.1555
53 2 4.60164 1.0234 18.2748
54 2 5.55075 3.20473 0
55 2 9.25125 3.20473 2.35169
56 2 9.25125 5.34121 3.13559
57 2 9.18759 5.13947 5.45445
58 2 7.31026 4.20959 6.36581
59 2 7.48058 4.17129 8.66203
60 2 11.0414 6.34361 9.76511
61 2 9.27703 3.13609 11.9988
62 2 9.22412 5.23216 12.9116
63 2 9.15922 5.2426 15.2271
64 2 7.35001 4.33521 16.2255
65 2 7.3566 5.36345 18.4972
66 3 2.78463 4.65214 23.2156
67 3 4.22899 13.6735 23.9803
68 3 9.23008 9.84845 23.6845
69 3 5.19716 8.46765 23.2494
ITEM: TIMESTEP
1100
ITEM: NUMBER OF ATOMS
69
ITEM: BOX BOUNDS xy xz yz pp pp ff
-3.7004999999999999e+00 7.4009999999999998e+00 -3.7004999999999999e+00
0.0000000000000000e+00 6.4094540134086300e+00 0.0000000000000000e+00
0.0000000000000000e+00 4.0329638543820927e+01 0.0000000000000000e+00
ITEM: ATOMS id type xu yu zu
1 1 -0.0667427 -0.26143 20.318
2 1 1.15629 0.432628 20.154
3 1 -1.13085 1.81898 20.4141
4 1 0.0805707 2.53862 20.1265
5 1 -2.41856 4.0894 19.9498
6 1 -1.29301 4.61566 20.7086
7 1 2.37419 -0.373973 20.8108
8 1 3.57884 0.347129 20.7319
9 1 1.12547 1.66896 19.7667
10 1 0.082498 3.96439 20.1799
11 1 1.33796 4.8103 19.984
12 1 4.95772 -0.280966 20.6522
13 1 6.12488 0.401941 20.5082
14 1 3.83317 1.8757 20.7737
15 1 5.03779 2.64578 20.5352
16 1 2.37113 4.25628 19.5082
17 1 3.65702 4.85492 19.6618
18 2 0 0 0
19 2 3.7005 0 2.35169
20 2 3.7005 2.13648 3.13559
21 2 3.63972 1.94281 5.50947
22 2 1.77711 0.842995 6.41879
23 2 1.63986 0.875956 8.70796
24 2 5.5287 3.09672 9.54348
25 2 3.57348 -0.125959 11.9588
26 2 3.68676 2.04773 12.7874
27 2 3.67421 1.92232 15.0868
28 2 1.71258 0.856536 16.1271
29 2 2.27067 0.89619 18.4369
30 2 1.85025 3.20473 0
31 2 5.55075 3.20473 2.35169
32 2 5.55075 5.34121 3.13559
33 2 5.51008 5.1677 5.55855
34 2 3.56431 4.2036 6.44291
35 2 3.57344 4.29439 8.87749
36 2 7.2765 6.31109 9.54194
37 2 5.55904 3.1627 11.8178
38 2 5.40484 5.1313 12.8843
39 2 5.40043 5.16626 15.2594
40 2 3.584 4.10573 16.0846
41 2 3.58232 3.36555 18.2786
42 2 3.7005 0 0
43 2 7.401 0 2.35169
44 2 7.401 2.13648 3.13559
45 2 7.46071 1.94455 5.43025
46 2 5.56048 0.944527 6.42005
47 2 5.41885 0.997444 8.81638
48 2 9.2457 3.00294 9.76738
49 2 7.34218 -0.0446144 12.2087
50 2 7.35342 2.06498 12.967
51 2 7.28993 2.20896 15.3599
52 2 5.4772 0.881417 16.1144
53 2 4.57551 1.06827 18.2615
54 2 5.55075 3.20473 0
55 2 9.25125 3.20473 2.35169
56 2 9.25125 5.34121 3.13559
57 2 9.25394 5.22574 5.57345
58 2 7.38827 4.11126 6.34249
59 2 7.53507 4.14705 8.67038
60 2 10.9774 6.30959 9.8638
61 2 9.19567 3.01267 12.1702
62 2 9.10623 5.22833 12.7976
63 2 9.13939 5.22052 15.2227
64 2 7.27905 4.35463 16.2463
65 2 7.27156 5.26489 18.3912
66 3 2.9777 4.65013 23.2943
67 3 4.18166 14.0347 23.9767
68 3 9.43721 10.1731 23.706
69 3 5.18755 8.48995 23.1923
ITEM: TIMESTEP
1200
ITEM: NUMBER OF ATOMS
69
ITEM: BOX BOUNDS xy xz yz pp pp ff
-3.7004999999999999e+00 7.4009999999999998e+00 -3.7004999999999999e+00
0.0000000000000000e+00 6.4094540134086300e+00 0.0000000000000000e+00
0.0000000000000000e+00 4.0329638543820927e+01 0.0000000000000000e+00
ITEM: ATOMS id type xu yu zu
1 1 -0.0791201 -0.244017 20.141
2 1 1.13002 0.423421 20.165
3 1 -1.06602 1.86494 20.5123
4 1 0.0864245 2.59499 20.1735
5 1 -2.45219 4.0216 19.8169
6 1 -1.38824 4.75706 20.5775
7 1 2.40811 -0.289192 20.769
8 1 3.7081 0.339878 20.7277
9 1 1.0534 1.72352 19.9368
10 1 -0.13265 3.99747 19.9818
11 1 1.24355 4.74556 20.161
12 1 4.9269 -0.295089 20.5459
13 1 6.17159 0.416411 20.4433
14 1 3.88848 1.87796 20.774
15 1 5.06881 2.63504 20.615
16 1 2.36606 4.22185 19.6718
17 1 3.63649 4.85564 19.7711
18 2 0 0 0
19 2 3.7005 0 2.35169
20 2 3.7005 2.13648 3.13559
21 2 3.57863 2.07072 5.60209
22 2 1.88508 0.774943 6.40584
23 2 1.71478 0.849872 8.76168
24 2 5.54665 3.15252 9.62388
25 2 3.5687 -0.0491029 11.8582
26 2 3.67032 2.05308 12.6818
27 2 3.55247 1.9198 15.0633
28 2 1.55376 0.867454 16.2802
29 2 2.23882 0.864359 18.3431
30 2 1.85025 3.20473 0
31 2 5.55075 3.20473 2.35169
32 2 5.55075 5.34121 3.13559
33 2 5.54178 5.04032 5.55304
34 2 3.73604 4.09206 6.42506
35 2 3.61625 4.12423 8.82748
36 2 7.28848 6.41565 9.62603
37 2 5.55628 2.98257 11.9763
38 2 5.59053 5.19551 12.9111
39 2 5.39547 5.16145 15.3544
40 2 3.56963 3.93544 16.1077
41 2 3.65564 3.30113 18.4386
42 2 3.7005 0 0
43 2 7.401 0 2.35169
44 2 7.401 2.13648 3.13559
45 2 7.39271 1.85052 5.51515
46 2 5.41196 1.08497 6.46566
47 2 5.47122 0.975871 8.7302
48 2 9.17056 3.03977 9.7171
49 2 7.3172 -0.141329 12.2999
50 2 7.27398 2.04968 12.9998
51 2 7.26694 2.16155 15.3583
52 2 5.41642 1.02554 16.0986
53 2 4.51918 1.08591 18.203
54 2 5.55075 3.20473 0
55 2 9.25125 3.20473 2.35169
56 2 9.25125 5.34121 3.13559
57 2 9.16929 5.39809 5.50893
58 2 7.48801 3.99033 6.3359
59 2 7.3376 4.07668 8.81898
60 2 10.8673 6.36299 9.71472
61 2 9.10057 3.07315 12.0533
62 2 9.04586 5.23572 12.8854
63 2 9.12136 5.15832 15.2204
64 2 7.26466 4.22152 16.3021
65 2 7.33082 5.27387 18.3451
66 3 3.11658 4.65557 23.2926
67 3 4.13538 14.4423 23.9524
68 3 9.85389 10.407 23.7038
69 3 5.06346 8.60506 23.1486
ITEM: TIMESTEP
1300
ITEM: NUMBER OF ATOMS
69
ITEM: BOX BOUNDS xy xz yz pp pp ff
-3.7004999999999999e+00 7.4009999999999998e+00 -3.7004999999999999e+00
0.0000000000000000e+00 6.4094540134086300e+00 0.0000000000000000e+00
0.0000000000000000e+00 4.0329638543820927e+01 0.0000000000000000e+00
ITEM: ATOMS id type xu yu zu
1 1 -0.0486833 -0.326212 20.1517
2 1 1.13253 0.434889 20.0853
3 1 -1.21757 1.81391 20.4735
4 1 -0.00255298 2.51305 20.1537
5 1 -2.61327 4.01731 19.9406
6 1 -1.35467 4.64207 20.4978
7 1 2.41596 -0.380013 20.7186
8 1 3.75422 0.207486 21.0237
9 1 1.00436 1.84782 19.8128
10 1 -0.0470634 3.96942 20.1602
11 1 1.17399 4.75231 19.9656
12 1 4.97753 -0.319295 20.6186