ITEM: TIMESTEP
0
ITEM: NUMBER OF ATOMS
75
ITEM: BOX BOUNDS xy xz yz pp pp pp
-3.7004999999999999e+00 7.4009999999999998e+00 -3.7004999999999999e+00
0.0000000000000000e+00 6.4094540134086300e+00 0.0000000000000000e+00
0.0000000000000000e+00 4.0329638543820927e+01 0.0000000000000000e+00
ITEM: ATOMS id type xs ys zs
19 2 0 0 0
20 2 0.5 0 0.0583118
21 2 0.666667 0.333333 0.077749
22 2 0.666667 0.333333 0.136061
23 2 0.333333 0.166667 0.155498
31 2 0.5 0.5 0
32 2 1 0.5 0.0583118
33 2 0.166667 0.833333 0.077749
34 2 0.166667 0.833333 0.136061
35 2 0.833333 0.666667 0.155498
43 2 0.5 0 0
44 2 0 0 0.0583118
45 2 0.166667 0.333333 0.077749
46 2 0.166667 0.333333 0.136061
47 2 0.833333 0.166667 0.155498
55 2 1 0.5 0
56 2 0.5 0.5 0.0583118
57 2 0.666667 0.833333 0.077749
58 2 0.666667 0.833333 0.136061
59 2 0.333333 0.666667 0.155498
24 2 0.333333 0.166667 0.21381
25 2 1 0.5 0.233247
26 2 0.5 0 0.291559
27 2 0.666667 0.333333 0.310996
36 2 0.833333 0.666667 0.21381
37 2 0.5 1 0.233247
38 2 1 0.5 0.291559
39 2 0.166667 0.833333 0.310996
48 2 0.833333 0.166667 0.21381
49 2 0.5 0.5 0.233247
50 2 0 0 0.291559
51 2 0.166667 0.333333 0.310996
60 2 0.333333 0.666667 0.21381
61 2 1 1 0.233247
62 2 0.5 0.5 0.291559
63 2 0.666667 0.833333 0.310996
1 1 0 0 0.496648
2 1 0.222222 0.111111 0.496648
3 1 -6.20862e-17 0.333333 0.496648
4 1 0.222222 0.444444 0.496648
5 1 1 0.666667 0.496648
6 1 0.222222 0.777778 0.496648
7 1 0.333333 0 0.496648
8 1 0.555556 0.111111 0.496648
9 1 0.333333 0.333333 0.496648
10 1 0.555556 0.444444 0.496648
11 1 0.333333 0.666667 0.496648
12 1 0.555556 0.777778 0.496648
13 1 0.666667 0 0.496648
14 1 0.888889 0.111111 0.496648
15 1 0.666667 0.333333 0.496648
16 1 0.888889 0.444444 0.496648
17 1 0.666667 0.666667 0.496648
18 1 0.888889 0.777778 0.496648
28 2 0.666667 0.333333 0.369308
29 2 0.333333 0.166667 0.388745
30 2 0.333333 0.166667 0.447057
40 2 0.166667 0.833333 0.369308
41 2 0.833333 0.666667 0.388745
42 2 0.833333 0.666667 0.447057
52 2 0.166667 0.333333 0.369308
53 2 0.833333 0.166667 0.388745
54 2 0.833333 0.166667 0.447057
64 2 0.666667 0.833333 0.369308
65 2 0.333333 0.666667 0.388745
66 2 0.333333 0.666667 0.447057
67 3 0.166667 0.166667 0.553678
68 3 0.166667 0.5 0.553678
69 3 0.166667 0.833333 0.553678
70 3 0.5 0.166667 0.553678
71 3 0.5 0.5 0.553678
72 3 0.5 0.833333 0.553678
73 3 0.833333 0.166667 0.553678
74 3 0.833333 0.5 0.553678
75 3 0.833333 0.833333 0.553678
ITEM: TIMESTEP
2
ITEM: NUMBER OF ATOMS
75
ITEM: BOX BOUNDS xy xz yz pp pp pp
-3.7004999999999999e+00 7.4009999999999998e+00 -3.7004999999999999e+00
0.0000000000000000e+00 6.4094540134086300e+00 0.0000000000000000e+00
0.0000000000000000e+00 4.0329638543820927e+01 0.0000000000000000e+00
ITEM: ATOMS id type xs ys zs
19 2 0 0 0
20 2 0.5 0 0.0583118
21 2 0.666667 0.333333 0.077749
22 2 0.666667 0.333333 0.135781
23 2 0.333333 0.166667 0.155801
31 2 0.5 0.5 0
32 2 1 0.5 0.0583118
33 2 0.166667 0.833333 0.077749
34 2 0.166667 0.833333 0.135781
35 2 0.833333 0.666667 0.155801
43 2 0.5 0 0
44 2 0 0 0.0583118
45 2 0.166667 0.333333 0.077749
46 2 0.166667 0.333333 0.135781
47 2 0.833333 0.166667 0.155801
55 2 1 0.5 0
56 2 0.5 0.5 0.0583118
57 2 0.666667 0.833333 0.077749
58 2 0.666667 0.833333 0.135781
59 2 0.333333 0.666667 0.155801
24 2 0.333333 0.166667 0.213538
25 2 1 0.5 0.233518
26 2 0.500024 4.8563e-05 0.291213
27 2 0.666667 0.333333 0.311257
36 2 0.833333 0.666667 0.213538
37 2 0.5 1 0.233518
38 2 0.999951 0.499976 0.291213
39 2 0.166667 0.833333 0.311228
48 2 0.833333 0.166667 0.213538
49 2 0.5 0.5 0.233518
50 2 7.51321e-10 -7.51321e-10 0.291201
51 2 0.166667 0.333334 0.311228
60 2 0.333333 0.666667 0.213538
61 2 1 1 0.233518
62 2 0.500024 0.499976 0.291213
63 2 0.666666 0.833333 0.311228
1 1 -1.3739e-06 1.3739e-06 0.497346
2 1 0.222544 0.111489 0.496267
3 1 -0.00424155 0.334784 0.496128
4 1 0.223167 0.4467 0.496222
5 1 0.995762 0.660981 0.496128
6 1 0.223166 0.776834 0.496222
7 1 0.339019 0.00423847 0.496128
8 1 0.551875 0.104863 0.497823
9 1 0.339019 0.334782 0.496128
10 1 0.551873 0.448127 0.497824
11 1 0.333333 0.666667 0.496468
12 1 0.5533 0.776833 0.496222
13 1 0.665216 0.00424155 0.496128
14 1 0.88851 0.11149 0.496267
15 1 0.666665 0.333335 0.496953
16 1 0.895137 0.448125 0.497823
17 1 0.665218 0.660981 0.496128
18 1 0.888511 0.777456 0.496267
28 2 0.666667 0.333333 0.369265
29 2 0.333218 0.166609 0.388965
30 2 0.330519 0.16526 0.446581
40 2 0.166723 0.833277 0.369328
41 2 0.833391 0.666782 0.388965
42 2 0.83474 0.669481 0.446581
52 2 0.166723 0.333447 0.369328
53 2 0.833391 0.166609 0.388965
54 2 0.834741 0.165259 0.446581
64 2 0.666553 0.833277 0.369328
65 2 0.333333 0.666667 0.389109
66 2 0.333333 0.666667 0.447742
67 3 0.166543 0.16625 0.554013
68 3 0.166763 0.499929 0.554088
69 3 0.166777 0.833223 0.554126
70 3 0.500456 0.166297 0.553779
71 3 0.50045 0.49955 0.553794
72 3 0.500071 0.833237 0.554088
73 3 0.833417 0.166583 0.554064
74 3 0.833703 0.499544 0.553779
75 3 0.83375 0.833457 0.554013
