ITEM: TIMESTEP
0
ITEM: NUMBER OF ATOMS
70
ITEM: BOX BOUNDS xy xz yz pp pp pp
-3.7004999999999999e+00 7.4009999999999998e+00 -3.7004999999999999e+00
0.0000000000000000e+00 6.4094540134086300e+00 0.0000000000000000e+00
0.0000000000000000e+00 4.0329638543820927e+01 0.0000000000000000e+00
ITEM: ATOMS id type xs ys zs
19 2 0 0 0
20 2 0.5 0 0.0583118
21 2 0.666667 0.333333 0.077749
22 2 0.666664 0.333336 0.135447
23 2 0.333337 0.16667 0.155964
31 2 0.5 0.5 0
32 2 1 0.5 0.0583118
33 2 0.166667 0.833333 0.077749
34 2 0.166669 0.833331 0.135449
35 2 0.83333 0.666663 0.155964
43 2 0.5 0 0
44 2 0 0 0.0583118
45 2 0.166667 0.333333 0.077749
46 2 0.166674 0.33334 0.135448
47 2 0.833332 0.166668 0.155959
55 2 1 0.5 0
56 2 0.5 0.5 0.0583118
57 2 0.666667 0.833333 0.077749
58 2 0.66666 0.833326 0.135448
59 2 0.333334 0.666666 0.155968
24 2 0.33336 0.166692 0.213423
25 2 0.999972 0.499981 0.23378
26 2 0.500148 0.000272676 0.291274
27 2 0.666682 0.333318 0.312054
36 2 0.833308 0.66664 0.213423
37 2 0.500019 2.8387e-05 0.23378
38 2 0.999727 0.499852 0.291274
39 2 0.166689 0.833311 0.311823
48 2 0.833324 0.166676 0.213416
49 2 0.500012 0.499988 0.233795
50 2 0.999983 1.68141e-05 0.291227
51 2 0.166683 0.333405 0.311845
60 2 0.333341 0.666659 0.213427
61 2 0.999997 3.05621e-06 0.233765
62 2 0.500132 0.499868 0.291288
63 2 0.666595 0.833317 0.311845
2 1 0.224078 0.112447 0.496546
3 1 0.996672 0.332861 0.493414
4 1 0.220961 0.44344 0.49405
5 1 0.995843 0.66359 0.494011
6 1 0.221089 0.778911 0.495224
7 1 0.33641 0.00415687 0.494011
9 1 0.335893 0.333035 0.4944
11 1 0.332872 0.667128 0.498318
12 1 0.55656 0.779039 0.49405
13 1 0.667139 0.00332779 0.493414
14 1 0.888042 0.111958 0.495565
17 1 0.666965 0.664107 0.4944
18 1 0.887553 0.775922 0.496546
28 2 0.666734 0.333266 0.370188
29 2 0.334026 0.167333 0.390274
30 2 0.320359 0.15692 0.448633
40 2 0.16635 0.83365 0.369816
41 2 0.832667 0.665974 0.390274
42 2 0.84308 0.679641 0.448633
52 2 0.166452 0.332979 0.369844
53 2 0.833089 0.166911 0.390153
54 2 0.83859 0.16141 0.448228
64 2 0.667021 0.833548 0.369844
65 2 0.333309 0.666691 0.389984
66 2 0.33469 0.66531 0.448091
1 1 0.000363031 0.999637 0.500498
8 1 0.554896 0.107548 0.500489
10 1 0.553185 0.446815 0.500072
15 1 0.66586 0.33414 0.503023
16 1 0.892452 0.445104 0.500489
67 3 0.253843 0.250029 0.555609
68 3 0.250617 0.749383 0.555808
69 3 0.745728 0.254272 0.554404
70 3 0.749971 0.746157 0.555609
ITEM: TIMESTEP
25
ITEM: NUMBER OF ATOMS
70
ITEM: BOX BOUNDS xy xz yz pp pp pp
-3.7004999999999999e+00 7.4009999999999998e+00 -3.7004999999999999e+00
0.0000000000000000e+00 6.4094540134086300e+00 0.0000000000000000e+00
0.0000000000000000e+00 4.0329638543820927e+01 0.0000000000000000e+00
ITEM: ATOMS id type xs ys zs
19 2 0 0 0
20 2 0.5 0 0.0583118
21 2 0.666667 0.333333 0.077749
22 2 0.667347 0.333068 0.135168
23 2 0.335642 0.169099 0.155956
31 2 0.5 0.5 0
32 2 1 0.5 0.0583118
33 2 0.166667 0.833333 0.077749
34 2 0.164749 0.82899 0.135882
35 2 0.837931 0.671751 0.156637
43 2 0.5 0 0
44 2 0 0 0.0583118
45 2 0.166667 0.333333 0.077749
46 2 0.165564 0.334799 0.135203
47 2 0.833578 0.164092 0.156178
55 2 1 0.5 0
56 2 0.5 0.5 0.0583118
57 2 0.666667 0.833333 0.077749
58 2 0.66886 0.831073 0.135069
59 2 0.333338 0.667474 0.155595
24 2 0.33179 0.163499 0.213054
25 2 0.99537 0.500217 0.233957
26 2 0.496512 -0.000163489 0.291717
27 2 0.661148 0.331974 0.311784
36 2 0.829607 0.666146 0.213485
37 2 0.502528 0.00245054 0.233838
38 2 1.00033 0.498441 0.291739
39 2 0.169218 0.835211 0.312003
48 2 0.83931 0.170118 0.212423
49 2 0.496504 0.497336 0.233754
50 2 1.00567 0.00231764 0.292146
51 2 0.167021 0.330892 0.312088
60 2 0.331137 0.661389 0.213757
61 2 0.996623 -0.00142474 0.233226
62 2 0.497811 0.500339 0.29176
63 2 0.664936 0.834895 0.31219
2 1 0.223189 0.110995 0.496963
3 1 0.995303 0.334546 0.492726
4 1 0.220962 0.441339 0.493012
5 1 0.999695 0.665936 0.495067
6 1 0.221817 0.781915 0.495291
7 1 0.336857 0.000151107 0.494026
9 1 0.333697 0.331073 0.494574
11 1 0.330991 0.661486 0.497663
12 1 0.558783 0.774613 0.493952
13 1 0.662102 -0.00332314 0.49443
14 1 0.885707 0.108334 0.495832
17 1 0.670978 0.661956 0.49487
18 1 0.888832 0.776395 0.495489
28 2 0.671607 0.336479 0.370339
29 2 0.337421 0.17075 0.390703
30 2 0.319289 0.159311 0.448376
40 2 0.173579 0.836827 0.369699
41 2 0.827962 0.665539 0.390196
42 2 0.839753 0.680027 0.448387
52 2 0.16708 0.331069 0.369988
53 2 0.836001 0.167557 0.389319
54 2 0.841304 0.169085 0.448078
64 2 0.666393 0.834499 0.369962
65 2 0.33215 0.669757 0.390074
66 2 0.333676 0.664772 0.447724
1 1 -0.00363348 0.998104 0.500404
8 1 0.553136 0.105991 0.499922
10 1 0.551765 0.447016 0.500451
15 1 0.662425 0.328587 0.503596
16 1 0.891271 0.449485 0.500021
67 3 0.261228 0.253973 0.556446
68 3 0.249803 0.747614 0.557101
69 3 0.748839 0.248615 0.55428
70 3 0.753016 0.734436 0.554987
ITEM: TIMESTEP
50
ITEM: NUMBER OF ATOMS
70
ITEM: BOX BOUNDS xy xz yz pp pp pp
-3.7004999999999999e+00 7.4009999999999998e+00 -3.7004999999999999e+00
0.0000000000000000e+00 6.4094540134086300e+00 0.0000000000000000e+00
0.0000000000000000e+00 4.0329638543820927e+01 0.0000000000000000e+00
ITEM: ATOMS id type xs ys zs
19 2 0 0 0
20 2 0.5 0 0.0583118
21 2 0.666667 0.333333 0.077749
22 2 0.668283 0.333156 0.135003
23 2 0.337587 0.170935 0.155887
31 2 0.5 0.5 0
32 2 1 0.5 0.0583118
33 2 0.166667 0.833333 0.077749
34 2 0.163967 0.826382 0.136218
35 2 0.841278 0.675051 0.157199
43 2 0.5 0 0
44 2 0 0 0.0583118
45 2 0.166667 0.333333 0.077749
46 2 0.164901 0.335934 0.135007
47 2 0.833531 0.161902 0.156208
55 2 1 0.5 0
56 2 0.5 0.5 0.0583118
57 2 0.666667 0.833333 0.077749
58 2 0.670555 0.829177 0.134773
59 2 0.33378 0.668021 0.155384
24 2 0.330339 0.160457 0.212766
25 2 0.991644 0.500548 0.234186
26 2 0.493901 -0.000269072 0.291989
27 2 0.657056 0.331334 0.311635
36 2 0.825986 0.665594 0.213633
37 2 0.504828 0.00398002 0.233868
38 2 1.00019 0.497017 0.29214
39 2 0.170843 0.835982 0.312219
48 2 0.843847 0.173072 0.211702
49 2 0.493065 0.494462 0.233802
50 2 1.0095 0.00358828 0.292786
51 2 0.167211 0.329046 0.312344
60 2 0.328968 0.657537 0.214044
61 2 0.994049 -0.00259845 0.232922
62 2 0.49601 0.501261 0.292099
63 2 0.664077 0.836555 0.31247
2 1 0.222031 0.107556 0.497327
3 1 0.992176 0.335275 0.492134
4 1 0.218704 0.436999 0.491699
5 1 0.998633 0.666195 0.49576
6 1 0.222785 0.779628 0.495452
7 1 0.335964 0.00127678 0.493696
9 1 0.337112 0.334308 0.494494
11 1 0.332058 0.6601 0.49697
12 1 0.558884 0.770212 0.493783
13 1 0.663169 -0.00596474 0.494922
14 1 0.881589 0.10662 0.495907
17 1 0.66907 0.65722 0.494988
18 1 0.891709 0.77739 0.494895
28 2 0.675676 0.339339 0.370504
29 2 0.34131 0.173819 0.391172
30 2 0.317497 0.161152 0.448538
40 2 0.178695 0.839901 0.369725
41 2 0.82502 0.665776 0.390192
42 2 0.837054 0.681101 0.448232
52 2 0.168231 0.329999 0.370176
53 2 0.838532 0.168176 0.388737
54 2 0.843834 0.176105 0.448192
64 2 0.665778 0.835307 0.370099
65 2 0.331273 0.672091 0.390153
66 2 0.332871 0.664007 0.447427
1 1 -0.00602034 0.996289 0.500217
8 1 0.551308 0.103094 0.499552
10 1 0.550671 0.441048 0.500898
15 1 0.664571 0.334066 0.503995
16 1 0.886198 0.446446 0.49987
67 3 0.271202 0.259456 0.557712
68 3 0.248038 0.745421 0.558788
69 3 0.7513 0.245336 0.554677
70 3 0.755527 0.719752 0.554865
ITEM: TIMESTEP
75
ITEM: NUMBER OF ATOMS
70
ITEM: BOX BOUNDS xy xz yz pp pp pp
-3.7004999999999999e+00 7.4009999999999998e+00 -3.7004999999999999e+00
0.0000000000000000e+00 6.4094540134086300e+00 0.0000000000000000e+00
0.0000000000000000e+00 4.0329638543820927e+01 0.0000000000000000e+00
ITEM: ATOMS id type xs ys zs
19 2 0 0 0
20 2 0.5 0 0.0583118
21 2 0.666667 0.333333 0.077749
22 2 0.669581 0.333772 0.135012
23 2 0.338928 0.1718 0.15572
31 2 0.5 0.5 0
32 2 1 0.5 0.0583118
33 2 0.166667 0.833333 0.077749
34 2 0.165057 0.826597 0.13638
35 2 0.842608 0.675461 0.157563
43 2 0.5 0 0
44 2 0 0 0.0583118
45 2 0.166667 0.333333 0.077749
46 2 0.165016 0.336511 0.134884
47 2 0.833048 0.160405 0.155923
55 2 1 0.5 0
56 2 0.5 0.5 0.0583118
57 2 0.666667 0.833333 0.077749
58 2 0.6714 0.827837 0.134614
59 2 0.334918 0.668129 0.155432
24 2 0.329086 0.15766 0.212608
25 2 0.989323 0.501009 0.234488
26 2 0.493042 0.000196187 0.29197
27 2 0.655397 0.331873 0.311675
36 2 0.822496 0.664912 0.213919
37 2 0.506718 0.00406334 0.233834
38 2 0.998828 0.495607 0.292424
39 2 0.170893 0.834835 0.312483
48 2 0.846087 0.175255 0.211428
49 2 0.489712 0.491237 0.233974
50 2 1.01024 0.00312634 0.292959
51 2 0.167129 0.328375 0.312608
60 2 0.326825 0.655949 0.21425
61 2 0.992787 -0.00332934 0.232986
62 2 0.495092 0.502924 0.292207
63 2 0.664482 0.83831 0.312628
2 1 0.220986 0.107514 0.497669
3 1 0.988569 0.330895 0.491897
4 1 0.217099 0.436572 0.490611
5 1 0.995961 0.664207 0.495958
6 1 0.222979 0.776733 0.495892
7 1 0.338228 0.00258651 0.493351
9 1 0.332909 0.330576 0.494191
11 1 0.333542 0.659128 0.496417
12 1 0.55799 0.769584 0.493863
13 1 0.662229 -0.00464179 0.495068
14 1 0.881114 0.107442 0.495878
17 1 0.669233 0.657963 0.494614
18 1 0.890615 0.777258 0.494924
28 2 0.678519 0.341672 0.37061
29 2 0.346009 0.176313 0.391638
30 2 0.314917 0.162259 0.448938
40 2 0.180314 0.842755 0.36991
41 2 0.824962 0.667135 0.390281
42 2 0.834723 0.681688 0.448334
52 2 0.170265 0.330362 0.370349
53 2 0.840392 0.168734 0.388529
54 2 0.845969 0.181501 0.448072
64 2 0.665312 0.835904 0.370198
65 2 0.330868 0.673229 0.390175
66 2 0.332373 0.663268 0.446885
1 1 -0.00655918 0.995386 0.500011
8 1 0.549015 0.0979103 0.499842
10 1 0.549717 0.440107 0.50143
15 1 0.66575 0.329934 0.504314
16 1 0.888362 0.448756 0.50026
67 3 0.285527 0.268044 0.559454
68 3 0.244107 0.742239 0.560859
69 3 0.752794 0.245136 0.555685
70 3 0.75713 0.699934 0.55543
ITEM: TIMESTEP
100
ITEM: NUMBER OF ATOMS
70
ITEM: BOX BOUNDS xy xz yz pp pp pp
-3.7004999999999999e+00 7.4009999999999998e+00 -3.7004999999999999e+00
0.0000000000000000e+00 6.4094540134086300e+00 0.0000000000000000e+00
0.0000000000000000e+00 4.0329638543820927e+01 0.0000000000000000e+00
ITEM: ATOMS id type xs ys zs
19 2 0 0 0
20 2 0.5 0 0.0583118
21 2 0.666667 0.333333 0.077749
22 2 0.671218 0.334927 0.135196
23 2 0.339495 0.171538 0.155466
31 2 0.5 0.5 0
32 2 1 0.5 0.0583118
33 2 0.166667 0.833333 0.077749
34 2 0.168095 0.829777 0.136339
35 2 0.841836 0.672794 0.157688
43 2 0.5 0 0
44 2 0 0 0.0583118
45 2 0.166667 0.333333 0.077749
46 2 0.166014 0.336394 0.134853
47 2 0.832274 0.159826 0.155333
55 2 1 0.5 0
56 2 0.5 0.5 0.0583118
57 2 0.666667 0.833333 0.077749
58 2 0.671315 0.827107 0.13463
59 2 0.336664 0.667752 0.155768
24 2 0.328095 0.155163 0.212603
25 2 0.98858 0.50161 0.234854
26 2 0.494104 0.00129739 0.291641
27 2 0.656384 0.333652 0.311923
36 2 0.819271 0.664064 0.214341
37 2 0.507951 0.00253093 0.233725
38 2 0.996223 0.494321 0.292574
39 2 0.169225 0.83175 0.312778
48 2 0.845721 0.176409 0.211646
49 2 0.486428 0.487784 0.234255
50 2 1.00769 0.000808494 0.29262
51 2 0.166697 0.328976 0.312839
60 2 0.324824 0.656834 0.214359
61 2 0.992958 -0.0035229 0.233438
62 2 0.495185 0.505257 0.292061
63 2 0.666156 0.840095 0.312625
2 1 0.219714 0.1079 0.498104
3 1 0.988252 0.329271 0.49213
4 1 0.216366 0.44058 0.489891
5 1 0.996708 0.66319 0.495598
6 1 0.221856 0.775279 0.496347
7 1 0.333884 -0.00443467 0.493274
9 1 0.333304 0.329305 0.494287
11 1 0.331713 0.657835 0.495868
12 1 0.55674 0.773573 0.494067
13 1 0.662081 -0.00515848 0.494693
14 1 0.883025 0.107362 0.495745
17 1 0.665883 0.654368 0.494025
18 1 0.886122 0.774918 0.495497
28 2 0.680203 0.343435 0.37062
29 2 0.351522 0.178111 0.392034
30 2 0.311168 0.161603 0.448982
40 2 0.178094 0.845017 0.370265
41 2 0.828197 0.669783 0.39049
42 2 0.832231 0.681094 0.448758
52 2 0.173213 0.332447 0.370497
53 2 0.841368 0.169213 0.388765
54 2 0.846858 0.184903 0.447696
64 2 0.665122 0.836341 0.370272
65 2 0.330962 0.673134 0.390152
66 2 0.33197 0.66239 0.446402
1 1 -0.00628724 0.996521 0.500065
8 1 0.553347 0.102456 0.50098
10 1 0.55536 0.442758 0.50192
15 1 0.663521 0.327339 0.504412
16 1 0.887934 0.447261 0.501256
67 3 0.305848 0.281 0.561696
68 3 0.237135 0.737354 0.56332
69 3 0.753189 0.24929 0.557339
70 3 0.757188 0.673578 0.557034
ITEM: TIMESTEP
125
ITEM: NUMBER OF ATOMS
70
ITEM: BOX BOUNDS xy xz yz pp pp pp
-3.7004999999999999e+00 7.4009999999999998e+00 -3.7004999999999999e+00
0.0000000000000000e+00 6.4094540134086300e+00 0.0000000000000000e+00
0.0000000000000000e+00 4.0329638543820927e+01 0.0000000000000000e+00
ITEM: ATOMS id type xs ys zs
19 2 0 0 0
20 2 0.5 0 0.0583118
21 2 0.666667 0.333333 0.077749
22 2 0.672973 0.336395 0.135498
23 2 0.33922 0.170284 0.155201
31 2 0.5 0.5 0
32 2 1 0.5 0.0583118
33 2 0.166667 0.833333 0.077749
34 2 0.172344 0.834891 0.136124
35 2 0.839625 0.667953 0.157589
43 2 0.5 0 0
44 2 0 0 0.0583118
45 2 0.166667 0.333333 0.077749
46 2 0.167688 0.335591 0.134931
47 2 0.831672 0.160277 0.154623
55 2 1 0.5 0
56 2 0.5 0.5 0.0583118
57 2 0.666667 0.833333 0.077749
58 2 0.670526 0.826943 0.134839
59 2 0.33853 0.667002 0.156328
24 2 0.327416 0.153068 0.212746
25 2 0.989231 0.502315 0.235237
26 2 0.496588 0.00283752 0.291114
27 2 0.659282 0.336196 0.312326
36 2 0.816654 0.663106 0.214834
37 2 0.508235 -0.000316348 0.233555
38 2 0.992909 0.493353 0.292606
39 2 0.166394 0.827691 0.31304
48 2 0.842994 0.17625 0.212247
49 2 0.483291 0.484597 0.234578
50 2 1.0028 -0.00272535 0.291902
51 2 0.165926 0.330448 0.312965
60 2 0.323268 0.659697 0.214385
61 2 0.994249 -0.00321563 0.234157
62 2 0.496095 0.507737 0.291741
63 2 0.668579 0.841744 0.312461
2 1 0.218615 0.103975 0.498137
3 1 0.99197 0.33431 0.492869
4 1 0.216695 0.442989 0.48946
5 1 0.996035 0.660471 0.494967
6 1 0.218248 0.772145 0.49677
7 1 0.332374 -0.00515961 0.493738
9 1 0.336539 0.333271 0.494414
11 1 0.327978 0.659748 0.495388
12 1 0.554014 0.773906 0.494347
13 1 0.66494 -0.000924928 0.494025
14 1 0.883928 0.105831 0.495325
17 1 0.661481 0.655411 0.493181
18 1 0.883028 0.771586 0.496414
28 2 0.681016 0.344565 0.37058
29 2 0.357159 0.179108 0.3924
30 2 0.306583 0.159528 0.44923
40 2 0.173025 0.846485 0.370783
41 2 0.83422 0.673528 0.390832
42 2 0.830053 0.679703 0.449448
52 2 0.176676 0.335667 0.370663
53 2 0.841447 0.169544 0.38942
54 2 0.846772 0.186355 0.447275
64 2 0.665473 0.836891 0.370332
65 2 0.331471 0.67226 0.390037
66 2 0.331601 0.660934 0.446035
1 1 -0.00519108 0.998379 0.500397
8 1 0.552825 0.103402 0.501787
10 1 0.556314 0.444285 0.501986
15 1 0.664814 0.32785 0.504556
16 1 0.8889 0.443564 0.502275
67 3 0.33068 0.297593 0.564506
68 3 0.227418 0.730217 0.566162
69 3 0.753243 0.255252 0.560008
70 3 0.756378 0.644366 0.560043
ITEM: TIMESTEP
150
ITEM: NUMBER OF ATOMS
70
ITEM: BOX BOUNDS xy xz yz pp pp pp
-3.7004999999999999e+00 7.4009999999999998e+00 -3.7004999999999999e+00
0.0000000000000000e+00 6.4094540134086300e+00 0.0000000000000000e+00
0.0000000000000000e+00 4.0329638543820927e+01 0.0000000000000000e+00
ITEM: ATOMS id type xs ys zs
19 2 0 0 0
20 2 0.5 0 0.0583118
21 2 0.666667 0.333333 0.077749
22 2 0.67441 0.337663 0.135802
23 2 0.338312 0.16855 0.155038
31 2 0.5 0.5 0
32 2 1 0.5 0.0583118
33 2 0.166667 0.833333 0.077749
34 2 0.176475 0.839959 0.135806
35 2 0.837172 0.662766 0.157348
43 2 0.5 0 0
44 2 0 0 0.0583118
45 2 0.166667 0.333333 0.077749
46 2 0.169584 0.334316 0.135116
47 2 0.83181 0.161653 0.154066
55 2 1 0.5 0
56 2 0.5 0.5 0.0583118
57 2 0.666667 0.833333 0.077749
58 2 0.669461 0.827192 0.135211
59 2 0.33987 0.666112 0.156959
24 2 0.327058 0.151541 0.212992
25 2 0.990688 0.502962 0.235551
26 2 0.499547 0.00443933 0.290601
27 2 0.662614 0.338656 0.312786
36 2 0.815033 0.662138 0.215283
37 2 0.507391 0.996296 0.23337
38 2 0.989869 0.492878 0.292573
39 2 0.163414 0.824201 0.313207
48 2 0.838765 0.174696 0.213006
49 2 0.480517 0.482337 0.234841
50 2 0.997451 0.993771 0.291112
51 2 0.164921 0.332109 0.312947
60 2 0.322428 0.663355 0.214357
61 2 0.995989 0.997407 0.234898
62 2 0.497303 0.509564 0.291418
63 2 0.670831 0.843014 0.3122
2 1 0.217772 0.101362 0.497815
3 1 0.998147 0.334686 0.493649
4 1 0.219505 0.445006 0.489339
5 1 0.99247 0.655929 0.494463
6 1 0.214468 0.772274 0.497149
7 1 0.336129 0.999711 0.494814
9 1 0.338301 0.336922 0.494458
11 1 0.32618 0.663009 0.495018
12 1 0.550541 0.773279 0.494584
13 1 0.664864 0.00376459 0.493234
14 1 0.887374 0.10863 0.494618
17 1 0.656959 0.658151 0.492736
18 1 0.883236 0.772505 0.497629
28 2 0.681585 0.345154 0.37055
29 2 0.361888 0.179436 0.392723
30 2 0.30223 0.157018 0.449807
40 2 0.167325 0.847194 0.371355
41 2 0.841408 0.677694 0.391267
42 2 0.829164 0.678619 0.449876
52 2 0.179909 0.338938 0.370853
53 2 0.840901 0.169704 0.390322
54 2 0.846467 0.18714 0.44731
64 2 0.666549 0.83782 0.370383
65 2 0.332253 0.671305 0.389786
66 2 0.331363 0.658812 0.445778
1 1 0.994568 0.997106 0.501047
8 1 0.548926 0.102395 0.501714
10 1 0.551713 0.441287 0.501689
15 1 0.663688 0.328306 0.504928
16 1 0.888819 0.440557 0.502898
67 3 0.354943 0.3152 0.567949
68 3 0.213996 0.720095 0.569263
69 3 0.754413 0.261439 0.563494
70 3 0.758511 0.617493 0.564186
ITEM: TIMESTEP
175
ITEM: NUMBER OF ATOMS
70
ITEM: BOX BOUNDS xy xz yz pp pp pp
-3.7004999999999999e+00 7.4009999999999998e+00 -3.7004999999999999e+00
0.0000000000000000e+00 6.4094540134086300e+00 0.0000000000000000e+00
0.0000000000000000e+00 4.0329638543820927e+01 0.0000000000000000e+00
ITEM: ATOMS id type xs ys zs
19 2 0 0 0
20 2 0.5 0 0.0583118
21 2 0.666667 0.333333 0.077749
22 2 0.675028 0.33809 0.135983
23 2 0.337229 0.167006 0.155075
31 2 0.5 0.5 0
32 2 1 0.5 0.0583118
33 2 0.166667 0.833333 0.077749
34 2 0.179168 0.842946 0.13546
35 2 0.835662 0.659195 0.157079
43 2 0.5 0 0
44 2 0 0 0.0583118
45 2 0.166667 0.333333 0.077749
46 2 0.171233 0.33294 0.13537
47 2 0.833043 0.163628 0.153891
55 2 1 0.5 0
56 2 0.5 0.5 0.0583118
57 2 0.666667 0.833333 0.077749
58 2 0.66855 0.827661 0.135669
59 2 0.340201 0.665309 0.157476
24 2 0.326968 0.15078 0.213278
25 2 0.99215 0.50327 0.235709
26 2 0.501994 0.00572219 0.290312
27 2 0.664889 0.34021 0.313207
36 2 0.81463 0.661223 0.215572
37 2 0.50544 0.993366 0.23324
38 2 0.988116 0.493019 0.292538
39 2 0.161268 0.822624 0.313257
48 2 0.834238 0.172027 0.213685
49 2 0.478438 0.481506 0.234958
50 2 0.993586 0.991573 0.290588
51 2 0.163874 0.333373 0.312818
60 2 0.322315 0.666351 0.214302
61 2 0.997446 0.998063 0.235381
62 2 0.49818 0.510045 0.291274
63 2 0.671948 0.84364 0.311944
2 1 0.217119 0.104362 0.497938
3 1 1.00002 0.333315 0.494519
4 1 0.224271 0.449814 0.489505
5 1 0.986709 0.649917 0.494587
6 1 0.21295 0.777032 0.497372
7 1 0.332525 0.996566 0.49628
9 1 0.334516 0.336257 0.494618
11 1 0.326655 0.665637 0.494706
12 1 0.54756 0.777361 0.494373
13 1 0.663786 0.00216841 0.492191
14 1 0.891196 0.111652 0.49397
17 1 0.654788 0.657846 0.493194
18 1 0.882284 0.773085 0.498754
28 2 0.682634 0.345536 0.370599
29 2 0.364891 0.179463 0.392917
30 2 0.299065 0.154466 0.449867
40 2 0.163549 0.847423 0.371807
41 2 0.847452 0.681198 0.391771
42 2 0.829245 0.677609 0.450074
52 2 0.182211 0.341281 0.37103
53 2 0.840186 0.169763 0.391246
54 2 0.845766 0.186958 0.447768
64 2 0.668329 0.83912 0.37046
65 2 0.333228 0.670918 0.389447
66 2 0.331308 0.655969 0.445836
1 1 0.990603 0.993414 0.502151
8 1 0.550489 0.106756 0.501386
10 1 0.551216 0.441353 0.50134
15 1 0.665453 0.333116 0.505533
16 1 0.886907 0.440694 0.502918
67 3 0.373649 0.331205 0.571876
68 3 0.196204 0.70635 0.572472
69 3 0.758745 0.266881 0.567464
70 3 0.767301 0.597791 0.56913
ITEM: TIMESTEP
200
ITEM: NUMBER OF ATOMS
70
ITEM: BOX BOUNDS xy xz yz pp pp pp
-3.7004999999999999e+00 7.4009999999999998e+00 -3.7004999999999999e+00
0.0000000000000000e+00 6.4094540134086300e+00 0.0000000000000000e+00
0.0000000000000000e+00 4.0329638543820927e+01 0.0000000000000000e+00
ITEM: ATOMS id type xs ys zs
19 2 0 0 0
20 2 0.5 0 0.0583118
21 2 0.666667 0.333333 0.077749
22 2 0.674519 0.337255 0.135967
23 2 0.336444 0.166084 0.155347
31 2 0.5 0.5 0
32 2 1 0.5 0.0583118
33 2 0.166667 0.833333 0.077749
34 2 0.179644 0.842674 0.135153
35 2 0.83578 0.658484 0.156877
43 2 0.5 0 0
44 2 0 0 0.0583118
45 2 0.166667 0.333333 0.077749
46 2 0.172321 0.331848 0.135637
47 2 0.835298 0.165739 0.154198
55 2 1 0.5 0
56 2 0.5 0.5 0.0583118
57 2 0.666667 0.833333 0.077749
58 2 0.668107 0.828242 0.136121
59 2 0.339365 0.664708 0.157723
24 2 0.327027 0.151007 0.213537
25 2 0.99289 0.502893 0.235665
26 2 0.503183 0.00641739 0.290378
27 2 0.665268 0.340389 0.313523
36 2 0.81541 0.660393 0.21562
37 2 0.502638 0.991772 0.233242
38 2 0.988238 0.493847 0.292541
39 2 0.160579 0.823639 0.313206
48 2 0.83057 0.168832 0.214113
49 2 0.477469 0.482303 0.234906
50 2 0.992421 0.991476 0.290545
51 2 0.163029 0.33393 0.312649
60 2 0.322673 0.667475 0.214235
61 2 0.998051 0.998441 0.235423
62 2 0.498276 0.508877 0.291409
63 2 0.671329 0.843398 0.311798
2 1 0.214561 0.108445 0.498552
3 1 1.00001 0.335725 0.495458
4 1 0.225725 0.451516 0.489978
5 1 0.986303 0.655172 0.495223
6 1 0.209947 0.776769 0.497693
7 1 0.331621 0.998451 0.497718
9 1 0.331881 0.333699 0.494667
11 1 0.32735 0.670806 0.494723
12 1 0.547866 0.780969 0.493663
13 1 0.661946 0.00461276 0.491494
14 1 0.889911 0.106935 0.493823
17 1 0.655936 0.657988 0.494506
18 1 0.87717 0.767705 0.499466
28 2 0.684365 0.346044 0.370802
29 2 0.365595 0.179502 0.393058
30 2 0.296509 0.151911 0.449916
40 2 0.163618 0.847943 0.372046
41 2 0.850484 0.68311 0.392338
42 2 0.830658 0.67757 0.450135
52 2 0.183258 0.341797 0.37118
53 2 0.839763 0.169745 0.391984
54 2 0.845244 0.186209 0.448295
64 2 0.670748 0.840577 0.370554
65 2 0.334505 0.671571 0.389073
66 2 0.331676 0.652372 0.445938
1 1 0.988771 0.993837 0.503174
8 1 0.55212 0.110842 0.500843
10 1 0.548849 0.442108 0.501147
15 1 0.661806 0.331299 0.50579
16 1 0.88668 0.441877 0.50281
67 3 0.386003 0.344526 0.576015
68 3 0.178261 0.69153 0.57572
69 3 0.764969 0.267694 0.571837
70 3 0.780673 0.587197 0.574555
ITEM: TIMESTEP
225
ITEM: NUMBER OF ATOMS
70
ITEM: BOX BOUNDS xy xz yz pp pp pp
-3.7004999999999999e+00 7.4009999999999998e+00 -3.7004999999999999e+00
0.0000000000000000e+00 6.4094540134086300e+00 0.0000000000000000e+00
0.0000000000000000e+00 4.0329638543820927e+01 0.0000000000000000e+00
ITEM: ATOMS id type xs ys zs
19 2 0 0 0
20 2 0.5 0 0.0583118
21 2 0.666667 0.333333 0.077749
22 2 0.672984 0.335259 0.135767
23 2 0.336213 0.165745 0.155808
31 2 0.5 0.5 0
32 2 1 0.5 0.0583118
33 2 0.166667 0.833333 0.077749
34 2 0.177871 0.839248 0.134953
35 2 0.837428 0.660646 0.156776
43 2 0.5 0 0
44 2 0 0 0.0583118
45 2 0.166667 0.333333 0.077749
46 2 0.172757 0.33131 0.135857
47 2 0.838052 0.167502 0.154954
55 2 1 0.5 0
56 2 0.5 0.5 0.0583118
57 2 0.666667 0.833333 0.077749
58 2 0.6683 0.828958 0.136483
59 2 0.337546 0.664319 0.157625
24 2 0.327124 0.152412 0.213727
25 2 0.99251 0.501553 0.235445
26 2 0.502792 0.00644503 0.290815
27 2 0.663873 0.339248 0.313713
36 2 0.817131 0.659708 0.215411
37 2 0.499401 0.991904 0.233436
38 2 0.990113 0.495344 0.292594
39 2 0.161482 0.827127 0.31309
48 2 0.828463 0.165771 0.214229
49 2 0.478014 0.484622 0.234734
50 2 0.994036 0.99355 0.290989
51 2 0.162563 0.333741 0.31252
60 2 0.32316 0.666221 0.214172
61 2 0.997486 0.998237 0.23503
62 2 0.497517 0.506273 0.2918
63 2 0.669047 0.842187 0.311825
2 1 0.210869 0.110014 0.499527
3 1 0.997177 0.340019 0.496603
4 1 0.22401 0.451599 0.490733
5 1 0.987142 0.660779 0.496272
6 1 0.208315 0.775214 0.498209
7 1 0.328217 1.00447 0.498672
9 1 0.330811 0.332412 0.49436
11 1 0.326681 0.674161 0.494844
12 1 0.550031 0.781731 0.492392
13 1 0.662713 0.00781539 0.491224
14 1 0.883707 0.101749 0.494519
17 1 0.656831 0.660065 0.495993
18 1 0.874624 0.766897 0.499954
28 2 0.686546 0.34693 0.371179
29 2 0.364125 0.179903 0.393191
30 2 0.293966 0.149062 0.450307
40 2 0.167818 0.848907 0.372075
41 2 0.850018 0.683115 0.392936
42 2 0.83298 0.678284 0.450415
52 2 0.183117 0.340501 0.37129
53 2 0.839906 0.169675 0.392361
54 2 0.844711 0.184091 0.448236
64 2 0.673432 0.841756 0.370664
65 2 0.336291 0.673341 0.388789
66 2 0.3329 0.647793 0.446236
1 1 0.988914 0.993357 0.503721
8 1 0.550373 0.110649 0.500527
10 1 0.543903 0.44042 0.501224
15 1 0.662909 0.33356 0.505629
16 1 0.886525 0.448615 0.503102
67 3 0.392557 0.354726 0.580129
68 3 0.165165 0.678985 0.578914
69 3 0.77091 0.260643 0.576349
70 3 0.795129 0.58572 0.580144
ITEM: TIMESTEP
250
ITEM: NUMBER OF ATOMS
70
ITEM: BOX BOUNDS xy xz yz pp pp pp
-3.7004999999999999e+00 7.4009999999999998e+00 -3.7004999999999999e+00
0.0000000000000000e+00 6.4094540134086300e+00 0.0000000000000000e+00
0.0000000000000000e+00 4.0329638543820927e+01 0.0000000000000000e+00
ITEM: ATOMS id type xs ys zs
19 2 0 0 0
20 2 0.5 0 0.0583118
21 2 0.666667 0.333333 0.077749
22 2 0.670923 0.332699 0.135483
23 2 0.336507 0.165576 0.156346
31 2 0.5 0.5 0
32 2 1 0.5 0.0583118
33 2 0.166667 0.833333 0.077749
34 2 0.174466 0.833888 0.134915
35 2 0.839788 0.664544 0.156749
43 2 0.5 0 0
44 2 0 0 0.0583118
45 2 0.166667 0.333333 0.077749
46 2 0.172649 0.331382 0.135991
47 2 0.840504 0.168526 0.155999
55 2 1 0.5 0
56 2 0.5 0.5 0.0583118
57 2 0.666667 0.833333 0.077749
58 2 0.669114 0.829926 0.136702
59 2 0.335254 0.664108 0.15722
24 2 0.327186 0.154982 0.213843
25 2 0.991142 0.499228 0.235133
26 2 0.500975 0.0058997 0.291517
27 2 0.661663 0.337296 0.313803
36 2 0.819437 0.65928 0.214995
37 2 0.496163 0.993427 0.233827
38 2 0.993009 0.497397 0.292679
39 2 0.163661 0.832256 0.312969
48 2 0.827879 0.16331 0.214096
49 2 0.480288 0.488083 0.234541
50 2 0.997418 0.997155 0.291728
51 2 0.162509 0.332989 0.312489
60 2 0.32355 0.663084 0.214133
61 2 0.995776 0.997254 0.234395
62 2 0.496197 0.502911 0.292322
63 2 0.665858 0.840127 0.312029
2 1 0.210252 0.112226 0.500691
3 1 0.993163 0.33822 0.497193
4 1 0.218699 0.451296 0.491749
5 1 0.989727 0.667581 0.497297
6 1 0.210728 0.781813 0.499247
7 1 0.325708 0.00663138 0.499212
9 1 0.325803 0.331092 0.493946
11 1 0.326561 0.673275 0.494965
12 1 0.550594 0.783165 0.490758
13 1 0.660318 0.0079556 0.491071
14 1 0.877783 0.105672 0.495658
17 1 0.654937 0.661834 0.497148
18 1 0.878083 0.773794 0.500417
28 2 0.688816 0.348073 0.371745
29 2 0.361293 0.180882 0.393301
30 2 0.290621 0.145698 0.450753
40 2 0.174611 0.849837 0.371911
41 2 0.847093 0.681615 0.393463
42 2 0.835417 0.679471 0.450996
52 2 0.18169 0.337913 0.371344
53 2 0.840627 0.169645 0.392419
54 2 0.845339 0.183204 0.448622
64 2 0.676123 0.842587 0.370807
65 2 0.338747 0.67589 0.388674
66 2 0.334934 0.642111 0.44658
1 1 0.98686 0.990756 0.50401
8 1 0.55002 0.111376 0.5006
10 1 0.543855 0.439746 0.501683
15 1 0.659061 0.33184 0.505026
16 1 0.884053 0.45128 0.503226
67 3 0.393991 0.362172 0.584018
68 3 0.158615 0.669287 0.5819
69 3 0.775999 0.245961 0.580784
70 3 0.808692 0.592021 0.585663
ITEM: TIMESTEP
275
ITEM: NUMBER OF ATOMS
70
ITEM: BOX BOUNDS xy xz yz pp pp pp
-3.7004999999999999e+00 7.4009999999999998e+00 -3.7004999999999999e+00
0.0000000000000000e+00 6.4094540134086300e+00 0.0000000000000000e+00
0.0000000000000000e+00 4.0329638543820927e+01 0.0000000000000000e+00
ITEM: ATOMS id type xs ys zs
19 2 0 0 0
20 2 0.5 0 0.0583118
21 2 0.666667 0.333333 0.077749
22 2 0.669003 0.330341 0.135253
23 2 0.337084 0.165131 0.156824
31 2 0.5 0.5 0
32 2 1 0.5 0.0583118
33 2 0.166667 0.833333 0.077749
34 2 0.170419 0.828375 0.135047
35 2 0.841671 0.668479 0.156739
43 2 0.5 0 0
44 2 0 0 0.0583118
45 2 0.166667 0.333333 0.077749
46 2 0.172217 0.331847 0.136028
47 2 0.841908 0.168639 0.157081
55 2 1 0.5 0
56 2 0.5 0.5 0.0583118
57 2 0.666667 0.833333 0.077749
58 2 0.670326 0.831249 0.136752
59 2 0.333223 0.664022 0.156652
24 2 0.32719 0.158414 0.213916
25 2 0.989394 0.496215 0.23483
26 2 0.498311 0.00497193 0.292304
27 2 0.659949 0.335282 0.313864
36 2 0.821939 0.659191 0.214462
37 2 0.493261 0.995461 0.234359
38 2 0.995995 0.499808 0.292763
39 2 0.166461 0.837736 0.31292
48 2 0.828082 0.161571 0.213879
49 2 0.48417 0.492087 0.234432
50 2 1.00092 1.00119 0.292481
51 2 0.162801 0.3321 0.312588
60 2 0.323765 0.659385 0.214122
61 2 0.993387 0.995551 0.233788
62 2 0.494811 0.499673 0.292802
63 2 0.662827 0.837551 0.312374
2 1 0.210494 0.11296 0.501842
3 1 0.987429 0.337918 0.497588
4 1 0.210846 0.448629 0.492976
5 1 0.99411 0.670987 0.498534
6 1 0.213635 0.792633 0.501342
7 1 0.32485 0.00210559 0.499535
9 1 0.324291 0.334418 0.494054
11 1 0.324591 0.675006 0.495337
12 1 0.547103 0.78367 0.489103
13 1 0.653949 0.00402118 0.490976
14 1 0.87672 0.113805 0.497325
17 1 0.653611 0.661938 0.497956
18 1 0.880303 0.779543 0.500784
28 2 0.690462 0.349243 0.372389
29 2 0.358046 0.182326 0.393381
30 2 0.287011 0.141953 0.451123
40 2 0.181641 0.850261 0.371623
41 2 0.843571 0.679453 0.393812
42 2 0.838506 0.682763 0.45141
52 2 0.179388 0.335074 0.371268
53 2 0.84169 0.169693 0.392208
54 2 0.847001 0.183741 0.449272
64 2 0.67843 0.842854 0.370926
65 2 0.341983 0.678607 0.388754
66 2 0.338256 0.634908 0.446515
1 1 0.983221 0.994382 0.504368
8 1 0.545409 0.107105 0.501063
10 1 0.540359 0.44066 0.502222
15 1 0.65782 0.334448 0.5046
16 1 0.88415 0.448254 0.503487
67 3 0.392093 0.367702 0.587521
68 3 0.159771 0.662331 0.584523
69 3 0.779689 0.226028 0.584896
70 3 0.818703 0.603096 0.590927
ITEM: TIMESTEP
300
ITEM: NUMBER OF ATOMS
70
ITEM: BOX BOUNDS xy xz yz pp pp pp
-3.7004999999999999e+00 7.4009999999999998e+00 -3.7004999999999999e+00
0.0000000000000000e+00 6.4094540134086300e+00 0.0000000000000000e+00
0.0000000000000000e+00 4.0329638543820927e+01 0.0000000000000000e+00
ITEM: ATOMS id type xs ys zs
19 2 0 0 0
20 2 0.5 0 0.0583118
21 2 0.666667 0.333333 0.077749
22 2 0.667733 0.328748 0.135188
23 2 0.33762 0.164198 0.15713
31 2 0.5 0.5 0
32 2 1 0.5 0.0583118
33 2 0.166667 0.833333 0.077749
34 2 0.166756 0.824338 0.135298
35 2 0.841999 0.670921 0.156691
43 2 0.5 0 0
44 2 0 0 0.0583118
45 2 0.166667 0.333333 0.077749
46 2 0.171676 0.332317 0.135986
47 2 0.841876 0.167952 0.157921
55 2 1 0.5 0
56 2 0.5 0.5 0.0583118
57 2 0.666667 0.833333 0.077749
58 2 0.671543 0.832905 0.136638
59 2 0.332134 0.66398 0.156103
24 2 0.327138 0.162215 0.213996
25 2 0.988019 0.493046 0.234616
26 2 0.495668 0.00389193 0.292999
27 2 0.6598 0.33392 0.313979