ITEM: TIMESTEP
0
ITEM: NUMBER OF ATOMS
70
ITEM: BOX BOUNDS xy xz yz pp pp ff
-3.7004999999999999e+00 7.4009999999999998e+00 -3.7004999999999999e+00
0.0000000000000000e+00 6.4094540134086300e+00 0.0000000000000000e+00
0.0000000000000000e+00 4.0329638543820927e+01 0.0000000000000000e+00
ITEM: ATOMS id type xu yu zu
1 1 67.4872 26.6636 20.3608
2 1 68.6872 27.3768 20.4802
3 1 66.2909 28.8299 20.4171
4 1 67.5231 29.5569 20.4594
5 1 64.9166 30.9284 20.3272
6 1 66.1369 31.7242 20.4656
7 1 69.9253 26.6918 20.491
8 1 71.1305 27.4118 20.281
9 1 68.7719 28.8169 20.3663
10 1 69.9253 29.4927 20.4731
11 1 67.3655 31.0228 20.5007
12 1 68.6167 31.6604 20.3835
13 1 72.341 26.6926 20.3795
14 1 73.672 27.3648 20.4371
15 1 71.1162 28.8222 20.3174
16 1 72.4132 29.5787 20.3801
17 1 69.8713 30.9102 20.3386
18 1 71.0665 31.6054 20.3848
19 2 0 0 0
20 2 3.7005 0 2.35169
21 2 3.7005 2.13648 3.13559
22 2 3.74598 2.32106 5.61251
23 2 2.04906 1.05982 6.57142
24 2 1.9507 1.15618 8.90284
25 2 5.59472 3.44117 9.80141
26 2 3.6207 0.333349 12.1856
27 2 3.59592 2.50936 13.2733
28 2 2.6605 2.93278 15.5726
29 2 1.16683 1.46825 17.4136
30 2 -1.1871 3.11998 17.1865
31 2 1.85025 3.20473 0
32 2 5.55075 3.20473 2.35169
33 2 5.55075 5.34121 3.13559
34 2 5.4557 5.39139 5.50679
35 2 3.78038 4.41108 6.48059
36 2 3.73128 4.42515 8.88338
37 2 7.50396 6.56103 9.71679
38 2 5.4893 3.57254 12.3674
39 2 5.47857 5.6058 13.4613
40 2 4.03586 6.40677 15.4301
41 2 2.96906 4.93492 16.8724
42 2 0.606415 6.34392 17.3836
43 2 3.7005 0 0
44 2 7.401 0 2.35169
45 2 7.401 2.13648 3.13559
46 2 7.5228 2.23168 5.55582
47 2 5.5301 1.14532 6.2982
48 2 5.67084 1.29055 8.69262
49 2 9.27741 3.27046 9.78999
50 2 7.20426 0.244832 12.1764
51 2 7.34768 2.3197 13.0544
52 2 7.57037 2.61345 15.421
53 2 5.01298 1.80365 15.3811
54 2 3.87524 2.02569 17.3697
55 2 5.55075 3.20473 0
56 2 9.25125 3.20473 2.35169
57 2 9.25125 5.34121 3.13559
58 2 9.31274 5.44419 5.57606
59 2 7.467 4.35237 6.42973
60 2 7.43028 4.46219 8.76878
61 2 11.0015 6.64238 9.78731
62 2 9.31013 3.37324 12.103
63 2 9.17504 5.47671 12.9279
64 2 9.09603 5.84812 15.112
65 2 6.84012 4.85919 15.5012
66 2 5.36278 5.47268 17.2624
67 3 -120.777 138.106 23.7804
68 3 -125.785 137.325 23.179
69 3 -93.6594 149.964 25.3706
70 3 -118.74 137.673 26.0902
ITEM: TIMESTEP
100
ITEM: NUMBER OF ATOMS
70
ITEM: BOX BOUNDS xy xz yz pp pp ff
-3.7004999999999999e+00 7.4009999999999998e+00 -3.7004999999999999e+00
0.0000000000000000e+00 6.4094540134086300e+00 0.0000000000000000e+00
0.0000000000000000e+00 4.0329638543820927e+01 0.0000000000000000e+00
ITEM: ATOMS id type xu yu zu
1 1 67.6065 26.7783 20.6281
2 1 68.8035 27.4916 20.4591
3 1 66.2387 28.8375 20.3954
4 1 67.5317 29.5921 20.4141
5 1 65.1533 30.9712 20.3679
6 1 66.3706 31.7837 20.4013
7 1 70.0059 26.7459 20.3969
8 1 71.2466 27.4234 20.4907
9 1 68.7536 28.8911 20.4843
10 1 70.0034 29.5497 20.1573
11 1 67.5857 31.0154 20.2436
12 1 68.8348 31.7075 20.4374
13 1 72.4941 26.6824 20.4111
14 1 73.7156 27.4133 20.5572
15 1 71.1746 28.8751 20.3598
16 1 72.3886 29.6058 20.3282
17 1 70.1208 30.9951 20.3153
18 1 71.3071 31.7167 20.3958
19 2 0 0 0
20 2 3.7005 0 2.35169
21 2 3.7005 2.13648 3.13559
22 2 3.78549 2.23636 5.57175
23 2 1.98825 1.19251 6.41105
24 2 1.81993 1.14612 8.92588
25 2 5.63098 3.40384 9.78625
26 2 3.65348 0.233658 12.2004
27 2 3.84656 2.25916 13.2788
28 2 2.61031 2.78079 15.5589
29 2 1.48775 1.38518 17.3569
30 2 -1.30186 2.9444 17.2702
31 2 1.85025 3.20473 0
32 2 5.55075 3.20473 2.35169
33 2 5.55075 5.34121 3.13559
34 2 5.57735 5.55577 5.54163
35 2 3.62987 4.37692 6.5786
36 2 3.68931 4.2441 8.96618
37 2 7.52335 6.71868 9.73508
38 2 5.50145 3.47619 12.3666
39 2 5.59362 5.66277 13.426
40 2 4.11821 6.35888 15.5504
41 2 2.98504 4.70725 16.8547
42 2 0.598783 5.93082 17.2527
43 2 3.7005 0 0
44 2 7.401 0 2.35169
45 2 7.401 2.13648 3.13559
46 2 7.66578 2.18245 5.5726
47 2 5.81499 1.19796 6.34706
48 2 5.54729 1.27219 8.74068
49 2 9.27117 3.23987 9.84859
50 2 7.46041 0.174975 12.029
51 2 7.40695 2.40027 13.0611
52 2 7.63874 2.48035 15.4423
53 2 5.14199 1.61696 15.1613
54 2 3.69649 2.02206 17.2804
55 2 5.55075 3.20473 0
56 2 9.25125 3.20473 2.35169
57 2 9.25125 5.34121 3.13559
58 2 9.21685 5.44057 5.54001
59 2 7.37778 4.46568 6.37624
60 2 7.47189 4.52727 8.89567
61 2 11.123 6.42532 9.51491
62 2 9.30131 3.26093 12.2432
63 2 9.20717 5.5159 12.6988
64 2 8.98626 5.78557 15.1888
65 2 6.89768 4.85009 15.5196
66 2 5.5781 5.4422 17.4228
67 3 -120.864 138.227 23.5578
68 3 -125.332 137.18 23.01
69 3 -94.1589 150.129 25.4052
70 3 -118.912 137.976 26.278
ITEM: TIMESTEP
200
ITEM: NUMBER OF ATOMS
70
ITEM: BOX BOUNDS xy xz yz pp pp ff
-3.7004999999999999e+00 7.4009999999999998e+00 -3.7004999999999999e+00
0.0000000000000000e+00 6.4094540134086300e+00 0.0000000000000000e+00
0.0000000000000000e+00 4.0329638543820927e+01 0.0000000000000000e+00
ITEM: ATOMS id type xu yu zu
1 1 67.694 26.8193 20.3924
2 1 68.9685 27.4975 20.3714
3 1 66.5131 28.9212 20.4802
4 1 67.764 29.602 20.2121
5 1 65.2003 31.0943 20.5119
6 1 66.4673 31.751 20.3539
7 1 70.1097 26.7668 20.3752
8 1 71.3373 27.4827 20.3845
9 1 68.9774 28.844 20.1885
10 1 70.2058 29.6264 20.4734
11 1 67.7078 31.0473 20.4484
12 1 68.8599 31.8109 20.3358
13 1 72.5699 26.782 20.5057
14 1 73.8199 27.5224 20.4167
15 1 71.3822 28.9594 20.375
16 1 72.6261 29.7002 20.4738
17 1 70.1302 31.1214 20.4613
18 1 71.3392 31.7467 20.4834
19 2 0 0 0
20 2 3.7005 0 2.35169
21 2 3.7005 2.13648 3.13559
22 2 3.99666 2.19446 5.45711
23 2 1.97375 1.31335 6.49798
24 2 1.84016 1.18749 8.68252
25 2 5.70502 3.30485 9.8809
26 2 3.64222 0.136563 12.0671
27 2 3.9766 2.09129 13.3317
28 2 2.63712 2.68451 15.3427
29 2 1.61473 1.32925 17.2458
30 2 -1.43652 2.80628 17.2671
31 2 1.85025 3.20473 0
32 2 5.55075 3.20473 2.35169
33 2 5.55075 5.34121 3.13559
34 2 5.5483 5.44175 5.56805
35 2 3.65996 4.33546 6.47667
36 2 3.69997 4.17582 8.85444
37 2 7.31651 6.6496 9.79752
38 2 5.61549 3.47765 12.1691
39 2 5.57488 5.53405 13.3851
40 2 4.29545 6.31729 15.4669
41 2 2.99277 4.56825 16.9545
42 2 0.618314 5.60409 17.3053
43 2 3.7005 0 0
44 2 7.401 0 2.35169
45 2 7.401 2.13648 3.13559
46 2 7.49951 2.41051 5.41458
47 2 5.77277 1.29077 6.52185
48 2 5.65239 1.27206 8.83994
49 2 9.1385 3.29884 9.81366
50 2 7.75996 0.145831 11.8936
51 2 7.40488 2.273 13.025
52 2 7.47863 2.1402 15.3319
53 2 5.19365 1.60481 15.2831
54 2 3.97573 1.96137 17.2955
55 2 5.55075 3.20473 0
56 2 9.25125 3.20473 2.35169
57 2 9.25125 5.34121 3.13559
58 2 9.27238 5.43983 5.48038
59 2 7.34673 4.38796 6.5471
60 2 7.50456 4.49807 8.94754
61 2 11.1495 6.35459 9.57699
62 2 9.31088 3.27383 12.1756
63 2 9.39981 5.53738 12.7536
64 2 9.14596 5.68172 15.1619
65 2 6.9225 4.58038 15.4137
66 2 5.67094 5.24589 17.4239
67 3 -120.569 138.112 23.808
68 3 -125.273 137.21 23.2572
69 3 -94.3307 150.412 25.4054
70 3 -119.401 138.327 25.9201
ITEM: TIMESTEP
300
ITEM: NUMBER OF ATOMS
70
ITEM: BOX BOUNDS xy xz yz pp pp ff
-3.7004999999999999e+00 7.4009999999999998e+00 -3.7004999999999999e+00
0.0000000000000000e+00 6.4094540134086300e+00 0.0000000000000000e+00
0.0000000000000000e+00 4.0329638543820927e+01 0.0000000000000000e+00
ITEM: ATOMS id type xu yu zu
1 1 67.8751 26.8513 20.2266
2 1 69.0688 27.583 20.215
3 1 66.6417 28.9743 20.2979
4 1 67.7668 29.753 20.498
5 1 65.3337 31.1056 20.4644
6 1 66.5076 31.8823 20.4925
7 1 70.2264 26.9144 20.3776
8 1 71.563 27.5286 20.3277
9 1 68.9945 28.9366 20.4081
10 1 70.2643 29.6799 20.4686
11 1 67.8214 31.2369 20.4831
12 1 69.0224 31.81 20.4943
13 1 72.8464 26.7554 20.3007
14 1 74.1048 27.5822 20.2498
15 1 71.5167 28.9826 20.5239
16 1 72.8696 29.7074 20.4676
17 1 70.2373 31.1421 20.4734
18 1 71.5303 31.7623 20.4742
19 2 0 0 0
20 2 3.7005 0 2.35169
21 2 3.7005 2.13648 3.13559
22 2 3.85136 2.22096 5.53396
23 2 1.95688 1.26689 6.20355
24 2 1.83256 1.25426 8.71917
25 2 5.65016 3.29942 9.75886
26 2 3.76471 0.0620434 12.172
27 2 3.88299 2.23479 13.0752
28 2 2.76648 2.48777 15.3472
29 2 1.50035 1.21597 17.0553
30 2 -1.05865 2.74775 17.2877
31 2 1.85025 3.20473 0
32 2 5.55075 3.20473 2.35169
33 2 5.55075 5.34121 3.13559
34 2 5.4979 5.48507 5.61655
35 2 3.78455 4.29119 6.27401
36 2 3.78199 4.21816 8.73755
37 2 7.36449 6.55731 9.61615
38 2 5.61263 3.29165 12.1838
39 2 5.65316 5.27216 13.35
40 2 4.3787 5.97814 15.4155
41 2 3.11622 4.53887 16.9178
42 2 0.791597 5.56692 17.449
43 2 3.7005 0 0
44 2 7.401 0 2.35169
45 2 7.401 2.13648 3.13559
46 2 7.38768 2.43298 5.54194
47 2 5.66651 1.13865 6.51687
48 2 5.63411 1.08517 9.04671
49 2 9.26128 3.27499 9.68213
50 2 7.6987 0.10486 11.9727
51 2 7.5047 2.11742 12.8047
52 2 7.43588 1.9854 15.2045
53 2 5.10966 1.45009 15.4311
54 2 3.97818 1.66277 17.3156
55 2 5.55075 3.20473 0
56 2 9.25125 3.20473 2.35169
57 2 9.25125 5.34121 3.13559
58 2 9.29558 5.50611 5.67172
59 2 7.50608 4.45723 6.61053
60 2 7.33009 4.44707 8.89586
61 2 11.1854 6.46032 9.63118
62 2 9.51206 3.32051 12.1348
63 2 9.58528 5.4807 12.8771
64 2 9.40393 5.64611 15.1717
65 2 7.01862 4.23294 15.2361
66 2 5.52599 5.07821 17.1949
67 3 -120.608 137.925 23.5908
68 3 -125.3 137.165 23.4372
69 3 -94.1702 150.764 25.5777
70 3 -119.834 138.796 26.0079
ITEM: TIMESTEP
400
ITEM: NUMBER OF ATOMS
70
ITEM: BOX BOUNDS xy xz yz pp pp ff
-3.7004999999999999e+00 7.4009999999999998e+00 -3.7004999999999999e+00
0.0000000000000000e+00 6.4094540134086300e+00 0.0000000000000000e+00
0.0000000000000000e+00 4.0329638543820927e+01 0.0000000000000000e+00
ITEM: ATOMS id type xu yu zu
1 1 67.9716 26.9888 20.3752
2 1 69.1759 27.6264 20.5119
3 1 66.659 29.0959 20.3894
4 1 67.9337 29.6706 20.4852
5 1 65.5598 31.1966 20.3472
6 1 66.7893 31.8304 20.4968
7 1 70.3924 26.8681 20.3955
8 1 71.5795 27.6118 20.4179
9 1 69.1724 29.0063 20.5342
10 1 70.3968 29.7953 20.3831
11 1 68.0995 31.1598 20.4455
12 1 69.241 31.883 20.4726
13 1 72.8778 26.8057 20.3413
14 1 74.1623 27.6623 20.3508
15 1 71.5994 29.0881 20.2928
16 1 72.9213 29.8121 20.3309
17 1 70.4745 31.2459 20.4145
18 1 71.7502 31.9643 20.2587
19 2 0 0 0
20 2 3.7005 0 2.35169
21 2 3.7005 2.13648 3.13559
22 2 3.66111 2.16716 5.49215
23 2 1.72219 1.17983 6.24034
24 2 1.89567 1.20667 8.65873
25 2 5.44455 3.21353 9.65723
26 2 3.91052 -0.0137444 12.2266
27 2 3.74625 2.14862 13.0601
28 2 2.93175 2.39097 15.5767
29 2 1.34255 1.05587 16.8621
30 2 -0.735038 2.55166 17.1716
31 2 1.85025 3.20473 0
32 2 5.55075 3.20473 2.35169
33 2 5.55075 5.34121 3.13559
34 2 5.75734 5.48811 5.43898
35 2 3.77268 4.3938 6.40819
36 2 3.80947 4.4467 8.63784
37 2 7.41856 6.45684 9.74813
38 2 5.70163 3.08518 12.0646
39 2 5.86399 5.1297 13.2505
40 2 4.41272 5.70119 15.2047
41 2 3.24385 4.32472 16.8284
42 2 0.952078 5.66798 17.307
43 2 3.7005 0 0
44 2 7.401 0 2.35169
45 2 7.401 2.13648 3.13559
46 2 7.36363 2.20683 5.6639
47 2 5.57489 1.13098 6.61499
48 2 5.56582 1.07123 8.86042
49 2 9.43431 3.39235 9.58392
50 2 7.65728 -0.0833048 12.0412
51 2 7.74729 2.2014 12.7224
52 2 7.60745 1.82391 15.0541
53 2 5.02136 1.28405 15.345
54 2 3.89019 1.34633 17.4926
55 2 5.55075 3.20473 0
56 2 9.25125 3.20473 2.35169
57 2 9.25125 5.34121 3.13559
58 2 9.37366 5.40841 5.5878
59 2 7.44672 4.56018 6.45038
60 2 7.42151 4.29327 8.81822
61 2 11.2954 6.42691 9.64115
62 2 9.47429 3.28545 11.9053
63 2 9.46927 5.37461 12.9205
64 2 9.33793 5.43472 15.271
65 2 7.26435 4.29002 15.2814
66 2 5.61317 4.926 17.085
67 3 -121.057 137.805 23.557
68 3 -125.252 137.199 23.8819
69 3 -94.0644 151.246 25.5317
70 3 -119.901 138.958 25.8906
ITEM: TIMESTEP
500
ITEM: NUMBER OF ATOMS
70
ITEM: BOX BOUNDS xy xz yz pp pp ff
-3.7004999999999999e+00 7.4009999999999998e+00 -3.7004999999999999e+00
0.0000000000000000e+00 6.4094540134086300e+00 0.0000000000000000e+00
0.0000000000000000e+00 4.0329638543820927e+01 0.0000000000000000e+00
ITEM: ATOMS id type xu yu zu
1 1 68.1343 26.9166 20.5519
2 1 69.3404 27.6817 20.5421
3 1 66.9363 29.1722 20.4319
4 1 68.1599 29.8151 20.3382
5 1 65.5838 31.2474 20.3048
6 1 66.8244 31.9788 20.2879
7 1 70.5716 26.9586 20.5161
8 1 71.7814 27.6958 20.4361
9 1 69.3605 29.0948 20.3215
10 1 70.6237 29.8244 20.3875
11 1 68.0316 31.281 20.4139
12 1 69.2355 31.995 20.2704
13 1 73.0357 26.9251 20.5253
14 1 74.3483 27.6837 20.5819
15 1 71.8762 29.1393 20.317
16 1 73.1303 29.8031 20.3167
17 1 70.4997 31.2174 20.2579
18 1 71.7127 31.9406 20.4423
19 2 0 0 0
20 2 3.7005 0 2.35169
21 2 3.7005 2.13648 3.13559
22 2 3.62638 2.22509 5.55107
23 2 1.80151 1.07699 6.52017
24 2 2.07921 1.15263 8.73988
25 2 5.54895 3.17327 9.61259
26 2 3.84057 -0.0346321 12.1159
27 2 3.87107 1.96819 13.2511
28 2 2.97894 2.245 15.653
29 2 1.38961 0.809523 16.8664
30 2 -0.731716 2.33755 16.8475
31 2 1.85025 3.20473 0
32 2 5.55075 3.20473 2.35169
33 2 5.55075 5.34121 3.13559
34 2 5.61535 5.3873 5.38913
35 2 3.88826 4.37594 6.30925
36 2 3.8195 4.50286 8.70797
37 2 7.39526 6.31431 9.83761
38 2 5.71828 3.03106 11.9678
39 2 6.00481 5.03363 13.1276
40 2 4.41461 5.59727 15.1333
41 2 3.37156 4.12885 16.8382
42 2 1.01062 5.50922 17.1427
43 2 3.7005 0 0
44 2 7.401 0 2.35169
45 2 7.401 2.13648 3.13559
46 2 7.21473 2.24423 5.50477
47 2 5.37344 1.15026 6.3786
48 2 5.61797 1.08215 8.78031
49 2 9.41862 3.32107 9.42383
50 2 7.75699 -0.143264 11.9187
51 2 7.68337 2.03406 12.6854
52 2 7.77465 1.78366 14.9571
53 2 5.19984 1.16675 15.4667
54 2 3.88199 1.34376 17.5117
55 2 5.55075 3.20473 0
56 2 9.25125 3.20473 2.35169
57 2 9.25125 5.34121 3.13559
58 2 9.35227 5.41723 5.40037
59 2 7.49331 4.2562 6.34739
60 2 7.48904 4.2373 8.77329
61 2 11.2564 6.60336 9.64134
62 2 9.48308 3.23231 11.7701
63 2 9.40678 5.20206 12.8737
64 2 9.31019 5.23936 15.0696
65 2 7.23383 4.30543 15.3715
66 2 5.92484 4.82702 17.1182
67 3 -121.521 137.743 23.8118
68 3 -125.479 137.201 24.1027
69 3 -93.7841 151.896 25.5697
70 3 -119.84 138.881 25.4556
ITEM: TIMESTEP
600
ITEM: NUMBER OF ATOMS
70
ITEM: BOX BOUNDS xy xz yz pp pp ff
-3.7004999999999999e+00 7.4009999999999998e+00 -3.7004999999999999e+00
0.0000000000000000e+00 6.4094540134086300e+00 0.0000000000000000e+00
0.0000000000000000e+00 4.0329638543820927e+01 0.0000000000000000e+00
ITEM: ATOMS id type xu yu zu
1 1 68.2646 27.0101 20.4251
2 1 69.4795 27.7457 20.3151
3 1 66.9474 29.2437 20.3422
4 1 68.182 29.9293 20.3361
5 1 65.8004 31.2761 20.495
6 1 67.0425 32.0095 20.4253
7 1 70.7184 27.0505 20.4134
8 1 71.9315 27.7175 20.4045
9 1 69.3661 29.2037 20.3874
10 1 70.6808 29.8897 20.2706
11 1 68.2306 31.2967 20.2237
12 1 69.4923 32.0004 20.4427
13 1 73.1876 27.0164 20.4141
14 1 74.3986 27.6764 20.3927
15 1 71.8714 29.1865 20.5389
16 1 73.1189 29.8629 20.5023
17 1 70.7765 31.2518 20.4608
18 1 72.0099 31.9926 20.4537
19 2 0 0 0
20 2 3.7005 0 2.35169
21 2 3.7005 2.13648 3.13559
22 2 3.53776 2.23015 5.50253
23 2 1.83873 1.09019 6.39057
24 2 2.107 1.06262 8.90292
25 2 5.73142 3.25087 9.59531
26 2 3.82663 -0.124633 12.097
27 2 4.07405 1.96152 13.2721
28 2 2.90983 2.05505 15.4173
29 2 1.56313 0.623573 17.0015
30 2 -0.806563 2.27307 16.7774
31 2 1.85025 3.20473 0
32 2 5.55075 3.20473 2.35169
33 2 5.55075 5.34121 3.13559
34 2 5.62418 5.37177 5.61726
35 2 3.68733 4.33756 6.30278
36 2 3.88245 4.35902 8.69735
37 2 7.62035 6.30063 9.62087
38 2 5.64322 3.0035 12.0583
39 2 5.80748 4.98708 13.1574
40 2 4.52466 5.54709 15.251
41 2 3.44829 4.14416 16.8969
42 2 1.05752 5.34227 17.0963
43 2 3.7005 0 0
44 2 7.401 0 2.35169
45 2 7.401 2.13648 3.13559
46 2 7.35047 2.03356 5.39764
47 2 5.42316 1.06272 6.19784
48 2 5.51301 1.03438 8.71945
49 2 9.42443 3.22531 9.44616
50 2 7.73454 -0.242323 11.8308
51 2 7.59019 1.87549 12.5788
52 2 8.01034 1.75827 14.9975
53 2 5.25758 0.92379 15.5259
54 2 3.93654 1.38185 17.3945
55 2 5.55075 3.20473 0
56 2 9.25125 3.20473 2.35169
57 2 9.25125 5.34121 3.13559
58 2 9.2359 5.36916 5.49302
59 2 7.51413 4.18617 6.33099
60 2 7.44283 4.25799 8.64705
61 2 11.222 6.61759 9.5023
62 2 9.60392 2.94236 11.9436
63 2 9.54497 5.18996 12.4916
64 2 9.55096 5.12167 14.9836
65 2 7.11825 4.05425 15.1586
66 2 6.03459 4.76334 17.1983
67 3 -122.183 137.57 23.7608
68 3 -125.529 137.24 24.0978
69 3 -93.5369 152.369 25.4997
70 3 -119.706 139.039 25.2962
ITEM: TIMESTEP
700
ITEM: NUMBER OF ATOMS
70
ITEM: BOX BOUNDS xy xz yz pp pp ff
-3.7004999999999999e+00 7.4009999999999998e+00 -3.7004999999999999e+00
0.0000000000000000e+00 6.4094540134086300e+00 0.0000000000000000e+00
0.0000000000000000e+00 4.0329638543820927e+01 0.0000000000000000e+00
ITEM: ATOMS id type xu yu zu
1 1 68.3184 27.1214 20.2466
2 1 69.6051 27.7702 20.2868
3 1 67.2055 29.2645 20.4128
4 1 68.4213 29.9396 20.394
5 1 65.893 31.3921 20.4802
6 1 67.1376 31.9811 20.5168
7 1 70.8124 27.0356 20.3509
8 1 72.0387 27.796 20.4046
9 1 69.6524 29.2027 20.4004
10 1 70.8706 29.9632 20.5734
11 1 68.3955 31.2473 20.5576
12 1 69.5287 32.0785 20.4141
13 1 73.2787 27.0996 20.2613
14 1 74.4498 27.7752 20.2107
15 1 72.0848 29.2578 20.4041
16 1 73.3151 30.0142 20.4337
17 1 70.8282 31.3865 20.4988
18 1 72.0633 32.0641 20.3966
19 2 0 0 0
20 2 3.7005 0 2.35169
21 2 3.7005 2.13648 3.13559
22 2 3.71214 2.11975 5.37193
23 2 1.89301 1.03375 6.37362
24 2 1.99813 1.02132 8.62868
25 2 5.66739 3.16066 9.62691
26 2 3.87959 -0.247147 12.0334
27 2 4.12262 1.83331 13.1875
28 2 3.00633 2.06744 15.2661
29 2 1.69083 0.709012 17.1923
30 2 -0.782372 2.2654 16.9724
31 2 1.85025 3.20473 0
32 2 5.55075 3.20473 2.35169
33 2 5.55075 5.34121 3.13559
34 2 5.59668 5.28701 5.54876
35 2 3.5867 4.27718 6.45831
36 2 3.88231 4.17218 8.63088
37 2 7.65002 6.31633 9.59488
38 2 5.77272 3.01349 12.0203
39 2 5.60638 4.96086 13.1843
40 2 4.83757 5.50698 15.3562
41 2 3.39612 4.02195 16.9064
42 2 1.09382 5.27018 17.0193
43 2 3.7005 0 0
44 2 7.401 0 2.35169
45 2 7.401 2.13648 3.13559
46 2 7.47823 1.95659 5.4997
47 2 5.56972 1.09075 6.35396
48 2 5.66737 1.22149 8.4844
49 2 9.45543 3.19396 9.70517
50 2 7.71688 -0.300241 11.7099
51 2 7.69866 1.84885 12.7147
52 2 8.08966 1.50549 15.0468
53 2 5.08952 0.728859 15.3366
54 2 4.06751 1.42263 17.2569
55 2 5.55075 3.20473 0
56 2 9.25125 3.20473 2.35169
57 2 9.25125 5.34121 3.13559
58 2 9.13515 5.28509 5.51835
59 2 7.30739 4.16643 6.34566
60 2 7.638 4.19913 8.63519
61 2 11.1995 6.2344 9.34892
62 2 9.64058 2.71726 11.9577
63 2 9.50126 5.03095 12.3771
64 2 9.65971 4.92986 14.9102
65 2 7.22058 3.92943 15.0217
66 2 5.99239 4.53911 17.1762
67 3 -122.903 137.407 23.6282
68 3 -125.364 137.5 24.0324
69 3 -93.2765 152.507 25.1195
70 3 -119.752 139.318 25.1462
ITEM: TIMESTEP
800
ITEM: NUMBER OF ATOMS
70
ITEM: BOX BOUNDS xy xz yz pp pp ff
-3.7004999999999999e+00 7.4009999999999998e+00 -3.7004999999999999e+00
0.0000000000000000e+00 6.4094540134086300e+00 0.0000000000000000e+00
0.0000000000000000e+00 4.0329638543820927e+01 0.0000000000000000e+00
ITEM: ATOMS id type xu yu zu
1 1 68.5715 27.1149 20.3862
2 1 69.7842 27.9119 20.5479
3 1 67.3827 29.3292 20.3622
4 1 68.4394 30.1339 20.5663
5 1 66.0704 31.3946 20.3317
6 1 67.2028 32.1486 20.342
7 1 70.9802 27.1771 20.4419
8 1 72.2484 27.8894 20.3122
9 1 69.6979 29.3498 20.4707
10 1 70.9621 29.9585 20.3911
11 1 68.4583 31.4729 20.5588
12 1 69.649 32.1158 20.439
13 1 73.5153 27.1152 20.4385
14 1 74.7405 27.8398 20.3776
15 1 72.2418 29.2357 20.2889
16 1 73.5009 30.0127 20.2857
17 1 70.9506 31.3863 20.3283
18 1 72.2094 31.9779 20.3746
19 2 0 0 0
20 2 3.7005 0 2.35169
21 2 3.7005 2.13648 3.13559
22 2 3.88296 2.06298 5.53697
23 2 2.10552 0.868505 6.25176
24 2 1.94335 0.889461 8.58096
25 2 5.82782 3.14705 9.62808
26 2 3.77637 -0.368809 11.9516
27 2 4.14399 1.60194 12.9518
28 2 3.03056 2.26509 15.27
29 2 1.76776 0.888288 17.2598
30 2 -0.76593 2.00226 16.9936
31 2 1.85025 3.20473 0
32 2 5.55075 3.20473 2.35169
33 2 5.55075 5.34121 3.13559
34 2 5.30907 5.23352 5.33499
35 2 3.68973 4.11809 6.22003
36 2 3.79294 3.93166 8.73465
37 2 7.48744 6.41254 9.50358
38 2 5.97414 2.86914 12.0384
39 2 5.77558 4.97219 12.9707
40 2 4.97522 5.40039 15.3941
41 2 3.42034 3.86257 16.8446
42 2 0.990408 5.28419 16.8721
43 2 3.7005 0 0
44 2 7.401 0 2.35169
45 2 7.401 2.13648 3.13559
46 2 7.49112 2.16018 5.49621
47 2 5.66023 0.964469 6.27183
48 2 5.86439 1.00251 8.78826
49 2 9.42008 2.87263 9.62992
50 2 7.6848 -0.283448 11.7242
51 2 7.781 1.65083 12.858
52 2 7.95925 1.215 15.2346
53 2 5.16388 0.735172 15.1076
54 2 4.27963 1.47694 17.1743
55 2 5.55075 3.20473 0
56 2 9.25125 3.20473 2.35169
57 2 9.25125 5.34121 3.13559
58 2 9.14451 5.2505 5.47907
59 2 7.31267 4.14368 6.39883
60 2 7.62498 4.15295 8.90608
61 2 11.2927 6.19336 9.33109
62 2 9.63506 2.65817 11.9473
63 2 9.5003 4.797 12.6494
64 2 9.72106 4.59086 14.8616
65 2 7.33485 3.90806 15.1953
66 2 6.04478 4.3992 17.119
67 3 -123.14 137.049 23.2611
68 3 -125.614 137.838 23.8625
69 3 -92.8862 152.826 24.7364
70 3 -120.028 139.588 24.8251
ITEM: TIMESTEP
900
ITEM: NUMBER OF ATOMS
70
ITEM: BOX BOUNDS xy xz yz pp pp ff
-3.7004999999999999e+00 7.4009999999999998e+00 -3.7004999999999999e+00
0.0000000000000000e+00 6.4094540134086300e+00 0.0000000000000000e+00
0.0000000000000000e+00 4.0329638543820927e+01 0.0000000000000000e+00
ITEM: ATOMS id type xu yu zu
1 1 68.597 27.3033 20.6462
2 1 69.9405 27.9421 20.441
3 1 67.3603 29.3942 20.4583
4 1 68.6229 30.0049 20.389
5 1 66.3169 31.4843 20.2833
6 1 67.4933 32.1497 20.4259
7 1 71.1376 27.1565 20.4238
8 1 72.3166 27.9634 20.4013
9 1 69.8978 29.3748 20.4416
10 1 71.1117 30.059 20.2491
11 1 68.7546 31.4157 20.1962
12 1 69.9453 32.1566 20.3835
13 1 73.5344 27.191 20.4076
14 1 74.7694 28.019 20.6421
15 1 72.3202 29.3364 20.3657
16 1 73.5768 30.0741 20.3464
17 1 71.2035 31.527 20.3815
18 1 72.4727 32.1999 20.361
19 2 0 0 0
20 2 3.7005 0 2.35169
21 2 3.7005 2.13648 3.13559
22 2 3.86009 1.89546 5.48559
23 2 1.91297 0.916549 6.17389
24 2 1.98688 0.671733 8.53001
25 2 5.81214 2.93637 9.77271
26 2 3.98274 -0.52099 11.8114
27 2 4.1627 1.56099 12.8878
28 2 2.89 2.13568 15.1829
29 2 1.84874 0.883082 17.0981
30 2 -0.716371 1.82324 17.0083
31 2 1.85025 3.20473 0
32 2 5.55075 3.20473 2.35169
33 2 5.55075 5.34121 3.13559
34 2 5.55149 5.20419 5.4523
35 2 3.60927 4.07664 6.35936
36 2 3.8702 3.92994 8.65492
37 2 7.61691 6.2442 9.58741
38 2 5.93809 2.64023 12.0875
39 2 5.89002 4.89861 12.863
40 2 4.89102 5.19439 15.289
41 2 3.62665 3.92663 16.9365
42 2 0.979667 5.38936 16.736
43 2 3.7005 0 0
44 2 7.401 0 2.35169
45 2 7.401 2.13648 3.13559
46 2 7.61874 2.08623 5.44459
47 2 5.87141 0.834415 6.45815
48 2 5.73068 0.719051 8.87818
49 2 9.37765 2.76083 9.46718
50 2 7.61141 -0.57473 11.9132
51 2 7.78966 1.52154 12.9235
52 2 7.91345 1.20496 15.2154
53 2 5.46283 0.694643 15.0622
54 2 4.30865 1.41896 17.0718
55 2 5.55075 3.20473 0
56 2 9.25125 3.20473 2.35169
57 2 9.25125 5.34121 3.13559
58 2 9.27266 5.12065 5.47941
59 2 7.38438 4.3333 6.55035
60 2 7.58802 4.17268 8.82228
61 2 11.32 5.98625 9.61301
62 2 9.63942 2.6386 11.9599
63 2 9.5743 4.84041 12.7389
64 2 9.75423 4.43586 15.1097
65 2 7.25639 3.79256 15.3291
66 2 6.18804 4.43374 17.2465
67 3 -123.249 136.996 23.2633
68 3 -125.645 138.013 23.5093
69 3 -92.9889 152.823 23.9915
70 3 -120.159 140.06 24.4529
ITEM: TIMESTEP
1000
ITEM: NUMBER OF ATOMS
70
ITEM: BOX BOUNDS xy xz yz pp pp ff
-3.7004999999999999e+00 7.4009999999999998e+00 -3.7004999999999999e+00
0.0000000000000000e+00 6.4094540134086300e+00 0.0000000000000000e+00
0.0000000000000000e+00 4.0329638543820927e+01 0.0000000000000000e+00
ITEM: ATOMS id type xu yu zu
1 1 68.7997 27.3057 20.3876
2 1 70.1129 28.0024 20.3647
3 1 67.6029 29.42 20.4526
4 1 68.8419 30.08 20.2738
5 1 66.2953 31.5071 20.5448
6 1 67.5089 32.2487 20.316
7 1 71.2528 27.2663 20.3528
8 1 72.5682 28.0716 20.4824
9 1 70.1504 29.4251 20.2925
10 1 71.2708 30.1128 20.4255
11 1 68.7637 31.5182 20.3553
12 1 70.0188 32.2595 20.3224
13 1 73.7316 27.305 20.4495
14 1 75.0222 28.0402 20.3505
15 1 72.5831 29.3975 20.4328
16 1 73.8681 30.1219 20.5132
17 1 71.1828 31.5376 20.3838
18 1 72.4277 32.2404 20.5432
19 2 0 0 0
20 2 3.7005 0 2.35169
21 2 3.7005 2.13648 3.13559
22 2 3.91594 1.84515 5.47034
23 2 1.87074 0.935449 6.33609
24 2 2.00006 0.608231 8.65377
25 2 5.67367 2.64819 9.70965
26 2 4.1748 -0.543918 12.0275
27 2 4.05554 1.47203 13.1061
28 2 2.80395 1.91499 15.1174
29 2 1.86083 0.602281 16.9153
30 2 -0.637642 1.95893 17.1141
31 2 1.85025 3.20473 0
32 2 5.55075 3.20473 2.35169
33 2 5.55075 5.34121 3.13559
34 2 5.67797 5.103 5.62924
35 2 3.86566 3.96795 6.4471
36 2 3.965 3.81441 8.75359
37 2 7.63185 5.96156 9.64265
38 2 5.85647 2.61837 12.1267
39 2 5.93458 4.61042 13.0109
40 2 4.83292 5.08675 15.2483
41 2 3.86656 3.9172 17.155
42 2 1.10388 5.46077 16.8139
43 2 3.7005 0 0
44 2 7.401 0 2.35169
45 2 7.401 2.13648 3.13559
46 2 7.41565 2.13587 5.53608
47 2 5.8343 0.851882 6.52832
48 2 5.82343 0.721021 8.76904
49 2 9.45475 2.84368 9.48163
50 2 7.83369 -0.742895 12.0864
51 2 7.7967 1.46933 12.7478
52 2 7.99468 1.28054 14.9952
53 2 5.74389 0.548371 15.1364
54 2 4.17514 1.38911 16.922
55 2 5.55075 3.20473 0
56 2 9.25125 3.20473 2.35169
57 2 9.25125 5.34121 3.13559
58 2 9.38093 5.19596 5.55691
59 2 7.55904 4.13722 6.40526
60 2 7.55629 3.81728 8.72182
61 2 11.2726 5.84121 9.75327
62 2 9.59803 2.62485 11.8421
63 2 9.544 4.69279 12.8427
64 2 9.77649 4.49345 15.1646
65 2 7.12215 3.65427 15.3093
66 2 6.19463 4.55442 17.3363
67 3 -123.152 136.888 23.5389
68 3 -125.755 138.154 23.1886
69 3 -93.5645 152.791 23.0995
70 3 -119.937 140.636 24.0755
ITEM: TIMESTEP
1100
ITEM: NUMBER OF ATOMS
70
ITEM: BOX BOUNDS xy xz yz pp pp ff
-3.7004999999999999e+00 7.4009999999999998e+00 -3.7004999999999999e+00
0.0000000000000000e+00 6.4094540134086300e+00 0.0000000000000000e+00
0.0000000000000000e+00 4.0329638543820927e+01 0.0000000000000000e+00
ITEM: ATOMS id type xu yu zu
1 1 69.0004 27.3291 20.2393
2 1 70.1757 28.0935 20.3238
3 1 67.6655 29.4906 20.3548
4 1 68.8805 30.1886 20.4098
5 1 66.5183 31.5377 20.4636
6 1 67.7541 32.3462 20.5489
7 1 71.3385 27.4012 20.4167
8 1 72.6894 28.0449 20.2753
9 1 70.1328 29.5307 20.3361
10 1 71.2999 30.1492 20.4684
11 1 68.9298 31.596 20.5187
12 1 70.2724 32.311 20.4919
13 1 73.907 27.3471 20.3261
14 1 75.1244 28.0779 20.3169
15 1 72.6232 29.446 20.4779
16 1 73.8957 30.1497 20.4537
17 1 71.4451 31.5308 20.4777
18 1 72.6833 32.2675 20.3438
19 2 0 0 0
20 2 3.7005 0 2.35169
21 2 3.7005 2.13648 3.13559
22 2 3.79836 1.88581 5.56924
23 2 2.03085 0.817679 6.50718
24 2 2.05935 0.586357 8.96204
25 2 5.75569 2.64492 9.69667
26 2 3.91979 -0.65402 12.2894
27 2 4.07549 1.38632 13.2829
28 2 2.84403 2.04332 15.0994
29 2 1.72987 0.356135 16.8541
30 2 -0.563354 2.06679 16.9963
31 2 1.85025 3.20473 0
32 2 5.55075 3.20473 2.35169
33 2 5.55075 5.34121 3.13559
34 2 5.66889 5.2156 5.51543
35 2 4.00578 3.94019 6.38629
36 2 3.95713 3.74001 8.83739
37 2 7.60144 5.77822 9.61799
38 2 5.76734 2.44786 12.0525
39 2 6.17374 4.51166 13.3324
40 2 4.86713 5.10275 15.3002
41 2 3.81575 3.79676 17.2655
42 2 1.16031 5.36132 17.0448
43 2 3.7005 0 0
44 2 7.401 0 2.35169
45 2 7.401 2.13648 3.13559
46 2 7.41722 1.91734 5.46861
47 2 5.57481 0.850446 6.37676
48 2 5.8071 0.421536 8.82591
49 2 9.51282 2.67889 9.57379
50 2 7.91128 -0.758724 12.0931
51 2 7.77235 1.43967 12.5042
52 2 7.95326 1.32126 14.9851
53 2 5.74056 0.477195 15.1898
54 2 4.24237 1.42651 16.9087
55 2 5.55075 3.20473 0
56 2 9.25125 3.20473 2.35169
57 2 9.25125 5.34121 3.13559
58 2 9.60661 5.17675 5.55741
59 2 7.71127 4.02713 6.35203
60 2 7.51154 3.61116 8.77554
61 2 11.3835 5.90859 9.68319
62 2 9.64289 2.49931 11.8488
63 2 9.69701 4.53518 12.9069
64 2 9.88653 4.39387 15.1897
65 2 7.18427 3.739 15.3249
66 2 6.19741 4.5611 17.2072
67 3 -122.844 137.081 23.8188
68 3 -125.901 138.284 23.1063
69 3 -94.065 152.653 22.6036
70 3 -119.919 140.972 23.6589
ITEM: TIMESTEP
1200
ITEM: NUMBER OF ATOMS
70
ITEM: BOX BOUNDS xy xz yz pp pp ff
-3.7004999999999999e+00 7.4009999999999998e+00 -3.7004999999999999e+00
0.0000000000000000e+00 6.4094540134086300e+00 0.0000000000000000e+00
0.0000000000000000e+00 4.0329638543820927e+01 0.0000000000000000e+00
ITEM: ATOMS id type xu yu zu
1 1 69.0573 27.4527 20.4216
2 1 70.347 28.0286 20.373
3 1 67.8474 29.5531 20.3865
4 1 69.1197 30.1513 20.5627
5 1 66.6409 31.6388 20.3094
6 1 67.8896 32.3042 20.4177
7 1 71.5058 27.3629 20.3923
8 1 72.7258 28.1125 20.4964
9 1 70.3346 29.5006 20.5513
10 1 71.5254 30.2932 20.3012
11 1 69.0989 31.5347 20.4706
12 1 70.3231 32.3558 20.4727
13 1 73.9875 27.42 20.3954
14 1 75.1134 28.1626 20.3808
15 1 72.8397 29.5793 20.2951
16 1 73.9848 30.2795 20.2635
17 1 71.5781 31.7007 20.3863
18 1 72.7942 32.4282 20.367
19 2 0 0 0
20 2 3.7005 0 2.35169
21 2 3.7005 2.13648 3.13559
22 2 3.63599 1.95043 5.48515
23 2 1.96851 0.748246 6.6078
24 2 2.25778 0.420407 8.84298
25 2 5.78746 2.47601 9.69119
26 2 3.98986 -0.836525 12.2521
27 2 4.23112 1.25504 13.2981
28 2 2.89302 2.15132 15.3313
29 2 1.68072 0.559157 16.8718
30 2 -0.613458 2.00888 16.8085
31 2 1.85025 3.20473 0
32 2 5.55075 3.20473 2.35169
33 2 5.55075 5.34121 3.13559
34 2 5.9196 5.14305 5.42747
35 2 3.99526 4.068 6.48298
36 2 3.97864 3.78158 8.71616
37 2 7.62728 5.62435 9.91613
38 2 5.76089 2.42983 12.086
39 2 6.03718 4.33955 13.4699
40 2 4.84552 5.14836 15.3727
41 2 3.59856 3.69941 17.178
42 2 1.20697 5.19058 17.1622
43 2 3.7005 0 0
44 2 7.401 0 2.35169
45 2 7.401 2.13648 3.13559
46 2 7.66307 1.65845 5.50378
47 2 5.58187 0.748146 6.42724
48 2 5.63373 0.339329 8.78471
49 2 9.50653 2.60538 9.70647
50 2 7.90263 -0.881053 11.9735
51 2 7.72581 1.37873 12.6545
52 2 7.87867 1.32541 14.9653
53 2 5.49102 0.47058 15.233
54 2 4.37781 1.29683 17.0811
55 2 5.55075 3.20473 0
56 2 9.25125 3.20473 2.35169
57 2 9.25125 5.34121 3.13559
58 2 9.56654 5.01406 5.4267
59 2 7.61399 3.98944 6.36416
60 2 7.69553 3.68084 8.71901
61 2 11.4301 5.75878 9.68185
62 2 9.83648 2.36419 12.0835
63 2 9.69453 4.61661 12.8291
64 2 9.94662 4.3944 15.3208
65 2 7.62728 3.88701 15.3677
66 2 6.18577 4.4141 17.1744
67 3 -122.488 137.519 23.9495
68 3 -126.213 138.242 23.4015
69 3 -94.3959 152.591 22.373
70 3 -119.942 141.128 23.2755
ITEM: TIMESTEP
1300
ITEM: NUMBER OF ATOMS
70
ITEM: BOX BOUNDS xy xz yz pp pp ff
-3.7004999999999999e+00 7.4009999999999998e+00 -3.7004999999999999e+00
0.0000000000000000e+00 6.4094540134086300e+00 0.0000000000000000e+00
0.0000000000000000e+00 4.0329638543820927e+01 0.0000000000000000e+00
ITEM: ATOMS id type xu yu zu
1 1 69.2884 27.376 20.5442
2 1 70.444 28.1509 20.6201
3 1 68.0758 29.5364 20.5241
4 1 69.1619 30.3487 20.2441
5 1 66.7131 31.7007 20.3009