ITEM: TIMESTEP
0
ITEM: NUMBER OF ATOMS
74
ITEM: BOX BOUNDS xy xz yz pp pp ff
-3.7004999999999999e+00 7.4009999999999998e+00 -3.7004999999999999e+00
0.0000000000000000e+00 6.4094540134086300e+00 0.0000000000000000e+00
0.0000000000000000e+00 4.0329638543820927e+01 0.0000000000000000e+00
ITEM: ATOMS id type xu yu zu
1 1 0.0152192 -0.0802805 19.9995
2 1 1.1613 0.681637 19.9547
3 1 -1.07307 2.10164 20.3186
4 1 0.038092 2.76981 19.8931
5 1 -2.49495 4.32304 20.6295
6 1 -1.30629 4.99421 20.39
7 1 2.32035 0.0107535 20.4861
8 1 3.63392 0.718572 20.591
9 1 0.974042 1.93814 19.4234
10 1 0.0918242 4.14604 19.8248
11 1 1.36715 4.99665 19.843
12 1 5.01262 0.0412349 19.9906
13 1 6.19126 0.694859 20.044
14 1 4.00907 2.0283 20.8701
15 1 4.96494 2.93459 20.8286
16 1 2.61899 4.45416 19.638
17 1 3.82046 4.88832 19.9765
18 2 0 0 0
19 2 3.7005 0 2.35169
20 2 3.7005 2.13648 3.13559
21 2 3.70165 2.11367 5.44594
22 2 1.85401 1.05938 6.28348
23 2 1.85892 1.04086 8.60666
24 2 5.54347 3.20857 9.44857
25 2 3.72691 -0.0183828 11.7619
26 2 3.6914 2.13702 12.5574
27 2 3.69395 2.12735 14.8738
28 2 1.78365 1.06247 15.8409
29 2 2.34998 1.2728 18.1544
30 2 1.85025 3.20473 0
31 2 5.55075 3.20473 2.35169
32 2 5.55075 5.34121 3.13559
33 2 5.55783 5.33237 5.47625
34 2 3.71403 4.24871 6.26945
35 2 3.66513 4.24365 8.60237
36 2 7.42211 6.39607 9.43274
37 2 5.52043 3.21237 11.7583
38 2 5.54762 5.36461 12.5774
39 2 5.46107 5.34313 14.9594
40 2 3.62635 4.27765 15.8439
41 2 3.58242 3.59805 18.1242
42 2 3.7005 0 0
43 2 7.401 0 2.35169
44 2 7.401 2.13648 3.13559
45 2 7.41081 2.15496 5.46053
46 2 5.56908 1.04767 6.26163
47 2 5.54532 1.08228 8.57788
48 2 9.22346 3.16002 9.47848
49 2 7.40014 0.0193547 11.7699
50 2 7.35857 2.13838 12.6348
51 2 7.36198 2.16765 14.9996
52 2 5.55326 1.07639 15.8427
53 2 5.07425 1.5584 18.2521
54 2 5.55075 3.20473 0
55 2 9.25125 3.20473 2.35169
56 2 9.25125 5.34121 3.13559
57 2 9.28477 5.32253 5.46477
58 2 7.41082 4.27098 6.30027
59 2 7.40717 4.27018 8.6284
60 2 11.089 6.39935 9.42387
61 2 9.21704 3.20819 11.8006
62 2 9.27345 5.33221 12.6302
63 2 9.19721 5.32436 14.9833
64 2 7.33685 4.32075 15.8279
65 2 7.11359 5.17208 18.0921
66 3 0.284383 1.20641 22.5432
67 3 -0.252297 2.71187 25.6347
68 3 -1.64935 5.71283 26.1493
69 3 3.49022 0.89414 22.9612
70 3 2.13855 2.73999 24.11
71 3 0.253579 4.65326 23.1222
72 3 4.82567 0.495947 26.0554
73 3 5.43206 2.90622 23.4376
74 3 3.42829 5.38774 24.0328
ITEM: TIMESTEP
100
ITEM: NUMBER OF ATOMS
74
ITEM: BOX BOUNDS xy xz yz pp pp ff
-3.7004999999999999e+00 7.4009999999999998e+00 -3.7004999999999999e+00
0.0000000000000000e+00 6.4094540134086300e+00 0.0000000000000000e+00
0.0000000000000000e+00 4.0329638543820927e+01 0.0000000000000000e+00
ITEM: ATOMS id type xu yu zu
1 1 0.158091 0.0265826 19.9852
2 1 1.335 0.678704 19.8799
3 1 -1.17198 2.18147 20.1745
4 1 0.0617301 2.71417 19.9804
5 1 -2.60185 4.41898 20.5685
6 1 -1.30643 4.90608 20.3665
7 1 2.35401 -0.109378 20.5193
8 1 3.80428 0.492262 20.5326
9 1 1.20959 1.97984 19.746
10 1 -0.155136 4.22101 19.9089
11 1 1.23378 4.98833 19.656
12 1 5.05032 -0.0671392 20.0461
13 1 6.19957 0.630067 19.9805
14 1 3.9908 1.88047 20.8438
15 1 4.92114 2.98276 20.7217
16 1 2.49012 4.50082 19.8039
17 1 3.70591 5.0148 19.9723
18 2 0 0 0
19 2 3.7005 0 2.35169
20 2 3.7005 2.13648 3.13559
21 2 3.76953 1.98618 5.398
22 2 1.81594 1.09975 6.35022
23 2 1.72306 1.06714 8.60567
24 2 5.55278 3.29587 9.54547
25 2 3.78113 0.0333882 11.7122
26 2 3.67563 2.1855 12.5831
27 2 3.71619 2.03005 14.8647
28 2 1.73283 0.965498 15.769
29 2 2.33402 1.54953 17.9921
30 2 1.85025 3.20473 0
31 2 5.55075 3.20473 2.35169
32 2 5.55075 5.34121 3.13559
33 2 5.40725 5.42798 5.39235
34 2 3.71552 4.12452 6.4082
35 2 3.73996 4.20199 8.71027
36 2 7.3917 6.4287 9.37408
37 2 5.5005 3.4018 11.8535
38 2 5.71148 5.44554 12.6562
39 2 5.46426 5.15693 14.9707
40 2 3.56271 4.07823 15.8293
41 2 3.57985 3.53778 18.1158
42 2 3.7005 0 0
43 2 7.401 0 2.35169
44 2 7.401 2.13648 3.13559
45 2 7.31794 2.15139 5.41495
46 2 5.52568 1.03999 6.34612
47 2 5.54378 1.15325 8.62529
48 2 9.26728 3.09407 9.57587
49 2 7.32229 0.0379243 11.6799
50 2 7.30986 2.09261 12.7422
51 2 7.43483 2.11156 15.0326
52 2 5.58173 1.0355 16.043
53 2 4.95499 1.56209 18.2497
54 2 5.55075 3.20473 0
55 2 9.25125 3.20473 2.35169
56 2 9.25125 5.34121 3.13559
57 2 9.36914 5.26193 5.47878
58 2 7.44207 4.36739 6.15533
59 2 7.52473 4.29723 8.57254
60 2 11.0816 6.416 9.40411
61 2 9.15067 3.11688 11.9951
62 2 9.22825 5.39725 12.5482
63 2 9.23 5.33978 14.9186
64 2 7.41143 4.28977 16.0339
65 2 7.10702 5.36539 18.1251
66 3 0.618802 1.19454 22.2281
67 3 -0.117017 2.75212 25.5996
68 3 -1.63119 6.06399 26.1539
69 3 3.44527 0.658658 23.2682
70 3 2.3515 3.02052 24.2276
71 3 0.337368 4.3189 23.0487
72 3 4.71987 0.5197 26.1283
73 3 5.83633 2.58195 23.4721
74 3 3.07868 5.61299 24.7219
ITEM: TIMESTEP
200
ITEM: NUMBER OF ATOMS
74
ITEM: BOX BOUNDS xy xz yz pp pp ff
-3.7004999999999999e+00 7.4009999999999998e+00 -3.7004999999999999e+00
0.0000000000000000e+00 6.4094540134086300e+00 0.0000000000000000e+00
0.0000000000000000e+00 4.0329638543820927e+01 0.0000000000000000e+00
ITEM: ATOMS id type xu yu zu
1 1 0.0493128 -0.0694877 19.9075
2 1 1.21386 0.695966 20.0695
3 1 -1.21016 2.08624 19.7806
4 1 -0.0681156 2.82927 19.9033
5 1 -2.60576 4.31187 20.4742
6 1 -1.18143 5.03513 20.6008
7 1 2.39517 -0.0705791 20.6373
8 1 3.62919 0.639648 20.7941
9 1 1.00321 2.00775 19.9428
10 1 -0.144618 4.33164 19.9453
11 1 1.28245 5.07919 19.6415
12 1 5.07951 -0.076743 20.3172
13 1 6.22187 0.630315 19.981
14 1 4.14537 1.89846 20.7956
15 1 5.08358 2.82227 20.5776
16 1 2.56818 4.4975 19.4395
17 1 3.72616 4.88312 19.8789
18 2 0 0 0
19 2 3.7005 0 2.35169
20 2 3.7005 2.13648 3.13559
21 2 3.61299 2.08925 5.54353
22 2 1.73763 1.13741 6.22734
23 2 1.87033 1.07691 8.66075
24 2 5.78887 3.31757 9.54648
25 2 3.74008 0.175143 11.6455
26 2 3.76132 2.19688 12.6575
27 2 3.67663 1.84221 14.9858
28 2 1.84834 0.834811 15.8016
29 2 2.31231 1.55933 18.354
30 2 1.85025 3.20473 0
31 2 5.55075 3.20473 2.35169
32 2 5.55075 5.34121 3.13559
33 2 5.47731 5.3143 5.5608
34 2 3.78415 4.09049 6.42652
35 2 3.6501 4.25843 8.78424
36 2 7.34997 6.44819 9.36659
37 2 5.61481 3.3137 11.9097
38 2 5.46407 5.51533 12.7798
39 2 5.56618 5.08734 15.1497
40 2 3.55661 4.18959 15.8516
41 2 3.35986 3.53415 18.2452
42 2 3.7005 0 0
43 2 7.401 0 2.35169
44 2 7.401 2.13648 3.13559
45 2 7.37737 2.2263 5.51478
46 2 5.64122 0.972953 6.34657
47 2 5.51687 1.17355 8.76271
48 2 9.24565 3.26989 9.63327
49 2 7.49129 0.00614758 11.8708
50 2 7.19255 2.11443 12.7941
51 2 7.27964 2.15868 15.2473
52 2 5.6371 0.993546 16.0592
53 2 4.7702 1.35812 18.3635
54 2 5.55075 3.20473 0
55 2 9.25125 3.20473 2.35169
56 2 9.25125 5.34121 3.13559
57 2 9.32852 5.29072 5.47408
58 2 7.27063 4.31201 6.27144
59 2 7.46625 4.26114 8.53925
60 2 10.9487 6.35047 9.48632
61 2 9.12494 3.24417 11.8722
62 2 9.24697 5.29339 12.6936
63 2 9.18554 5.34806 15.0981
64 2 7.40128 4.29046 16.0434
65 2 7.448 5.5299 18.0014
66 3 1.16796 1.18208 22.1886
67 3 0.0953113 2.73058 25.9029
68 3 -1.74746 6.4279 26.1364
69 3 3.41418 0.264234 23.7984
70 3 2.81628 3.14823 24.3331
71 3 0.626923 4.12055 22.8795
72 3 4.64952 0.728624 26.2988
73 3 5.90862 2.05616 23.555
74 3 2.80773 6.02768 25.2535
ITEM: TIMESTEP
300
ITEM: NUMBER OF ATOMS
74
ITEM: BOX BOUNDS xy xz yz pp pp ff
-3.7004999999999999e+00 7.4009999999999998e+00 -3.7004999999999999e+00
0.0000000000000000e+00 6.4094540134086300e+00 0.0000000000000000e+00
0.0000000000000000e+00 4.0329638543820927e+01 0.0000000000000000e+00
ITEM: ATOMS id type xu yu zu
1 1 -0.00898386 0.0237171 20.0048
2 1 1.13425 0.669074 20.3159
3 1 -1.19607 2.18246 19.7535
4 1 0.050558 2.87522 19.678
5 1 -2.4913 4.42638 20.2327
6 1 -1.40274 5.06059 20.5745
7 1 2.35053 -0.0549944 20.7016
8 1 3.81493 0.586046 20.7774
9 1 1.06047 2.04017 19.9197
10 1 0.00794591 4.30881 19.8433
11 1 1.26284 5.05727 20.1602
12 1 5.03048 -0.14074 20.6839
13 1 6.11488 0.617032 19.9997
14 1 4.0135 1.8885 20.605
15 1 4.93005 2.8765 20.368
16 1 2.37093 4.47473 19.4851
17 1 3.70611 4.96189 19.5959
18 2 0 0 0
19 2 3.7005 0 2.35169
20 2 3.7005 2.13648 3.13559
21 2 3.7384 2.07841 5.53373
22 2 1.8002 0.9791 6.40649
23 2 1.72667 1.14872 8.67764
24 2 5.52356 3.23241 9.61798
25 2 3.61754 0.0152266 11.9574
26 2 3.66768 2.23514 12.6944
27 2 3.65956 2.04449 15.059
28 2 1.73528 0.993464 16.2231
29 2 2.19037 1.23134 18.3671
30 2 1.85025 3.20473 0
31 2 5.55075 3.20473 2.35169
32 2 5.55075 5.34121 3.13559
33 2 5.5047 5.31876 5.49668
34 2 3.60583 4.35596 6.42913
35 2 3.80281 4.27202 8.7573
36 2 7.39215 6.47289 9.5058
37 2 5.57761 3.3012 11.9093
38 2 5.62786 5.35545 12.8436
39 2 5.45613 5.22063 15.2165
40 2 3.64003 4.0683 16.0631
41 2 3.43427 3.49357 18.1199
42 2 3.7005 0 0
43 2 7.401 0 2.35169
44 2 7.401 2.13648 3.13559
45 2 7.32754 2.12794 5.44195
46 2 5.51931 1.05494 6.37749
47 2 5.55878 1.09413 8.67129
48 2 9.21747 3.24195 9.48128
49 2 7.26157 0.0543694 12.0446
50 2 7.45422 2.17315 12.958
51 2 7.45453 2.10588 15.2804
52 2 5.42859 1.01563 16.1182
53 2 4.74324 1.22061 18.1708
54 2 5.55075 3.20473 0
55 2 9.25125 3.20473 2.35169
56 2 9.25125 5.34121 3.13559
57 2 9.21109 5.28925 5.50979
58 2 7.44608 4.28684 6.39842
59 2 7.42648 4.39925 8.70672
60 2 11.1743 6.49748 9.7071
61 2 9.2016 3.21049 11.922
62 2 9.19837 5.42984 12.8571
63 2 9.21816 5.23502 15.1714
64 2 7.44885 4.29215 16.1078
65 2 7.64324 5.56404 18.2565
66 3 1.69555 1.34301 22.7528
67 3 0.359416 2.74782 26.3164
68 3 -2.06056 6.79036 26.2486
69 3 3.45134 -0.249094 24.3043
70 3 3.47386 3.13514 24.4036
71 3 1.04365 3.90853 22.7399
72 3 4.44083 1.3057 26.8468
73 3 5.92945 1.46306 23.5338
74 3 2.80346 6.26519 25.529
ITEM: TIMESTEP
400
ITEM: NUMBER OF ATOMS
74
ITEM: BOX BOUNDS xy xz yz pp pp ff
-3.7004999999999999e+00 7.4009999999999998e+00 -3.7004999999999999e+00
0.0000000000000000e+00 6.4094540134086300e+00 0.0000000000000000e+00
0.0000000000000000e+00 4.0329638543820927e+01 0.0000000000000000e+00
ITEM: ATOMS id type xu yu zu
1 1 -0.0155129 0.0398787 20.0267
2 1 1.26369 0.570104 19.9954
3 1 -1.35544 2.05842 19.7636
4 1 -0.00786768 2.67685 19.8978
5 1 -2.63484 4.44247 20.1218
6 1 -1.36183 5.01541 20.5841
7 1 2.48577 -0.0320885 20.7238
8 1 3.79836 0.597879 20.7882
9 1 1.07358 1.94352 19.7754
10 1 0.0772275 4.09227 20.0997
11 1 1.35191 4.94627 20.0927
12 1 5.02379 0.0146962 20.6343
13 1 6.16102 0.637428 20.0947
14 1 3.86566 2.15394 20.6168
15 1 4.89917 3.08514 20.4243
16 1 2.4921 4.33075 19.4781
17 1 3.68196 4.90054 19.581
18 2 0 0 0
19 2 3.7005 0 2.35169
20 2 3.7005 2.13648 3.13559
21 2 3.64798 2.23986 5.49736
22 2 1.88317 1.01098 6.40546
23 2 1.81735 1.13964 8.77259
24 2 5.43701 3.1145 9.61384
25 2 3.6394 0.000536215 12.1096
26 2 3.63538 2.15114 12.7976
27 2 3.55199 2.17705 15.1442
28 2 1.60476 1.03686 16.2368
29 2 2.46236 1.1787 18.3779
30 2 1.85025 3.20473 0
31 2 5.55075 3.20473 2.35169
32 2 5.55075 5.34121 3.13559
33 2 5.56542 5.29086 5.46539
34 2 3.62726 4.36354 6.35885
35 2 3.70999 4.45743 8.73925
36 2 7.37036 6.59537 9.79672
37 2 5.56135 3.13723 12.0329
38 2 5.47445 5.24296 12.9621
39 2 5.51097 5.41366 15.3507
40 2 3.71809 4.19195 16.0371
41 2 3.31063 3.23605 18.1268
42 2 3.7005 0 0
43 2 7.401 0 2.35169
44 2 7.401 2.13648 3.13559
45 2 7.4118 2.01872 5.52678
46 2 5.46773 1.11383 6.3658
47 2 5.65741 1.01862 8.75411
48 2 9.28179 3.30443 9.52349
49 2 7.34668 0.1087 12.1809
50 2 7.55009 2.20978 12.9641
51 2 7.32221 2.11987 15.3833
52 2 5.40299 0.98347 15.9563
53 2 4.84841 1.34916 18.2285
54 2 5.55075 3.20473 0
55 2 9.25125 3.20473 2.35169
56 2 9.25125 5.34121 3.13559
57 2 9.13582 5.44084 5.48435
58 2 7.41648 4.17123 6.41622
59 2 7.27889 4.36182 8.91392
60 2 11.1608 6.48911 9.8075
61 2 9.28614 3.33419 11.916
62 2 9.10267 5.36469 12.9326
63 2 9.28883 5.25958 15.2855
64 2 7.32316 4.35558 16.3129
65 2 7.53542 5.40324 18.2954
66 3 2.0248 1.36411 23.5453
67 3 0.521545 2.99922 26.6397
68 3 -2.22255 7.02413 26.5005
69 3 3.63287 -0.86266 24.6882
70 3 4.14363 3.1337 24.4669
71 3 1.4457 3.80041 22.787
72 3 4.21571 2.01094 27.5496
73 3 6.03536 1.0625 23.276
74 3 2.76026 6.17205 25.7645
ITEM: TIMESTEP
500
ITEM: NUMBER OF ATOMS
74
ITEM: BOX BOUNDS xy xz yz pp pp ff
-3.7004999999999999e+00 7.4009999999999998e+00 -3.7004999999999999e+00
0.0000000000000000e+00 6.4094540134086300e+00 0.0000000000000000e+00
0.0000000000000000e+00 4.0329638543820927e+01 0.0000000000000000e+00
ITEM: ATOMS id type xu yu zu
1 1 0.0653673 -0.0460235 19.8886
2 1 1.2998 0.545288 19.9363
3 1 -1.13906 2.0832 20.1201
4 1 0.122248 2.63819 19.9006
5 1 -2.476 4.28718 20.3026
6 1 -1.20309 4.91628 20.6637
7 1 2.45043 -0.180087 20.4986
8 1 3.71649 0.459432 20.7043
9 1 1.16756 1.89917 19.6789
10 1 -0.0121107 4.21785 19.9732
11 1 1.19773 4.92422 19.8586
12 1 4.95755 -0.169542 20.5195
13 1 6.12863 0.527534 20.0949
14 1 3.78171 2.00341 20.9381
15 1 4.89641 2.86734 20.6612
16 1 2.36564 4.38907 19.4712
17 1 3.79659 4.8917 19.5104
18 2 0 0 0
19 2 3.7005 0 2.35169
20 2 3.7005 2.13648 3.13559
21 2 3.552 2.29778 5.48385
22 2 1.93948 1.06927 6.38483
23 2 1.97394 1.14937 8.88527
24 2 5.49323 3.18338 9.70424
25 2 3.53353 -0.0101548 12.1518
26 2 3.65785 2.11572 12.9554
27 2 3.48583 2.03635 15.2022
28 2 1.74916 1.13426 16.0495
29 2 2.50271 1.14202 18.283
30 2 1.85025 3.20473 0
31 2 5.55075 3.20473 2.35169
32 2 5.55075 5.34121 3.13559
33 2 5.62406 5.28681 5.56008
34 2 3.69326 4.38928 6.33137
35 2 3.58799 4.45973 8.71745
36 2 7.40372 6.48231 9.82405
37 2 5.57147 3.03374 12.0824
38 2 5.38279 5.2938 13.0754
39 2 5.62645 5.37221 15.3854
40 2 3.67993 4.2872 16.1317
41 2 3.33683 3.42173 18.2623
42 2 3.7005 0 0
43 2 7.401 0 2.35169
44 2 7.401 2.13648 3.13559
45 2 7.46346 2.05903 5.58523
46 2 5.49478 1.17081 6.4332
47 2 5.54531 1.00031 8.88093
48 2 9.21202 3.41628 9.67063
49 2 7.44964 0.0199325 12.1752
50 2 7.40349 2.25086 12.97
51 2 7.08017 2.37545 15.3707
52 2 5.4291 1.10811 15.99
53 2 4.8889 1.33513 18.2569
54 2 5.55075 3.20473 0
55 2 9.25125 3.20473 2.35169
56 2 9.25125 5.34121 3.13559
57 2 9.16183 5.43037 5.50446
58 2 7.29065 4.16653 6.51713
59 2 7.25766 4.3058 8.90117
60 2 11.1139 6.46251 9.80254
61 2 9.2882 3.35307 11.9157
62 2 9.26869 5.32283 12.9922
63 2 9.08837 5.27151 15.3734
64 2 7.32736 4.33438 16.3959
65 2 7.41403 5.48106 18.4437
66 3 2.21511 1.16938 24.2807
67 3 0.603415 3.41811 26.9688
68 3 -1.84189 7.13669 26.929
69 3 3.77941 -1.37774 25.0112
70 3 4.79107 3.14296 24.7711
71 3 1.85333 3.8589 22.8786
72 3 3.8594 2.53129 27.6994
73 3 6.24686 0.758506 22.987
74 3 2.4844 6.0357 26.0985
ITEM: TIMESTEP
600
ITEM: NUMBER OF ATOMS
74
ITEM: BOX BOUNDS xy xz yz pp pp ff
-3.7004999999999999e+00 7.4009999999999998e+00 -3.7004999999999999e+00
0.0000000000000000e+00 6.4094540134086300e+00 0.0000000000000000e+00
0.0000000000000000e+00 4.0329638543820927e+01 0.0000000000000000e+00
ITEM: ATOMS id type xu yu zu
1 1 -0.0274405 -0.0833224 19.7219
2 1 1.10777 0.648201 19.927
3 1 -1.09131 2.03056 19.9782
4 1 0.0242834 2.78193 19.8322
5 1 -2.55833 4.15581 20.5776
6 1 -1.35459 4.83628 20.3741
7 1 2.33699 -0.201688 20.683
8 1 3.66757 0.408594 20.8547
9 1 0.951186 2.0425 19.5746
10 1 0.00632806 4.14748 20.0339
11 1 1.28169 4.81935 20.0202
12 1 5.0529 -0.240468 20.4167
13 1 6.13218 0.510686 19.8785
14 1 3.91769 1.81347 21.0581
15 1 5.14191 2.70955 20.7317
16 1 2.35589 4.37726 19.3669
17 1 3.73622 4.749 19.7096
18 2 0 0 0
19 2 3.7005 0 2.35169
20 2 3.7005 2.13648 3.13559
21 2 3.75827 2.18035 5.51935
22 2 1.87496 1.05709 6.5779
23 2 1.86937 1.2135 8.88352
24 2 5.40737 3.29616 9.77027
25 2 3.62933 -0.111289 12.1864
26 2 3.60328 2.12019 12.8986
27 2 3.68123 2.21897 15.2343
28 2 1.61784 1.17251 16
29 2 2.31251 1.24279 18.1702
30 2 1.85025 3.20473 0
31 2 5.55075 3.20473 2.35169
32 2 5.55075 5.34121 3.13559
33 2 5.57382 5.43444 5.54105
34 2 3.63704 4.45125 6.42356
35 2 3.68603 4.27614 8.79864
36 2 7.38491 6.26136 9.74773
37 2 5.42998 3.27175 12.0757
38 2 5.59378 5.2084 13.046
39 2 5.43041 5.27522 15.3904
40 2 3.53344 4.18479 16.1783
41 2 3.62518 3.44624 18.3039
42 2 3.7005 0 0
43 2 7.401 0 2.35169
44 2 7.401 2.13648 3.13559
45 2 7.37264 2.17849 5.54494
46 2 5.48692 1.15722 6.51611
47 2 5.45025 1.15786 8.8971
48 2 9.14595 3.27759 9.69418
49 2 7.34217 0.0564748 12.0923
50 2 7.3639 2.17683 12.9532
51 2 7.2858 2.38102 15.2403
52 2 5.39701 1.13287 16.2365
53 2 4.88553 1.36405 18.3485
54 2 5.55075 3.20473 0
55 2 9.25125 3.20473 2.35169
56 2 9.25125 5.34121 3.13559
57 2 9.16547 5.33917 5.62184
58 2 7.42607 4.29033 6.52777
59 2 7.33996 4.30072 8.79884
60 2 11.1903 6.52182 9.69295
61 2 9.20109 3.17199 12.1943
62 2 9.24162 5.43244 12.9955
63 2 9.17143 5.36811 15.3551
64 2 7.35813 4.38839 16.3363
65 2 7.44563 5.5147 18.151
66 3 2.3213 0.979437 24.7026
67 3 0.701187 3.69331 27.5161
68 3 -1.44139 7.01354 27.5527
69 3 3.76561 -1.67486 24.996
70 3 5.42584 3.06134 25.0203
71 3 2.3151 3.99924 22.8766
72 3 3.55202 3.10583 27.765
73 3 6.55689 0.390235 23.1256
74 3 2.31678 6.01123 26.382
ITEM: TIMESTEP
700
ITEM: NUMBER OF ATOMS
74
ITEM: BOX BOUNDS xy xz yz pp pp ff
-3.7004999999999999e+00 7.4009999999999998e+00 -3.7004999999999999e+00
0.0000000000000000e+00 6.4094540134086300e+00 0.0000000000000000e+00
0.0000000000000000e+00 4.0329638543820927e+01 0.0000000000000000e+00
ITEM: ATOMS id type xu yu zu
1 1 -0.0979227 -0.221805 19.8977
2 1 1.15003 0.523334 19.6152
3 1 -1.27411 1.98543 19.8407
4 1 -0.0300143 2.67242 19.7058
5 1 -2.70087 4.36209 20.5922
6 1 -1.27449 4.8185 20.5159
7 1 2.3406 -0.0829509 20.5602
8 1 3.81018 0.251449 20.7457
9 1 0.935038 1.91991 19.5967
10 1 -0.0369952 4.10005 19.746
11 1 1.30191 4.82707 19.7638
12 1 5.13988 -0.223622 20.5231
13 1 6.13434 0.536888 20.0103
14 1 4.08124 1.66651 21.1614
15 1 4.8851 2.82527 20.7387
16 1 2.53494 4.12724 19.7574
17 1 3.61081 4.83334 19.9947
18 2 0 0 0
19 2 3.7005 0 2.35169
20 2 3.7005 2.13648 3.13559
21 2 3.74949 2.18123 5.6609
22 2 1.78686 1.24085 6.48461
23 2 1.83579 1.05165 8.87081
24 2 5.51252 3.3028 9.7068
25 2 3.77836 -0.00619558 12.0039
26 2 3.64525 2.07967 12.8703
27 2 3.655 2.16928 15.1288
28 2 1.73343 1.03562 15.9874
29 2 2.28256 1.49964 18.1529
30 2 1.85025 3.20473 0
31 2 5.55075 3.20473 2.35169
32 2 5.55075 5.34121 3.13559
33 2 5.50179 5.46656 5.57048
34 2 3.73664 4.2574 6.51153
35 2 3.61151 4.32628 8.89489
36 2 7.32876 6.42924 9.73989
37 2 5.38368 3.25764 12.0534
38 2 5.50203 5.42472 12.968
39 2 5.30387 5.32758 15.3597
40 2 3.56749 4.24523 16.1225
41 2 3.59978 3.38364 18.2514
42 2 3.7005 0 0
43 2 7.401 0 2.35169
44 2 7.401 2.13648 3.13559
45 2 7.35737 2.21744 5.5981
46 2 5.59302 1.04563 6.52714
47 2 5.49266 1.17882 8.8935
48 2 9.23853 3.18466 9.86198
49 2 7.42325 -0.00278583 12.0055
50 2 7.19001 2.11284 12.8665
51 2 7.34045 2.15517 15.2712
52 2 5.61441 1.21109 16.1606
53 2 4.78233 1.39403 18.33
54 2 5.55075 3.20473 0
55 2 9.25125 3.20473 2.35169
56 2 9.25125 5.34121 3.13559
57 2 9.26168 5.45029 5.56579
58 2 7.37072 4.38282 6.34221
59 2 7.35059 4.17549 8.79303
60 2 10.9871 6.46365 9.61683
61 2 9.10303 3.21479 12.1821
62 2 9.19512 5.32184 12.9885
63 2 9.21683 5.52631 15.3367
64 2 7.3102 4.47592 15.9385
65 2 7.42605 5.51476 18.2659
66 3 2.38932 0.894028 24.9036
67 3 0.656492 3.85048 28.2268
68 3 -1.10596 6.69728 28.238
69 3 3.86351 -1.7373 24.7097
70 3 5.82036 2.74132 25.1781
71 3 2.71126 3.95725 22.8479
72 3 3.45423 3.74039 27.8845
73 3 6.95507 0.176424 23.4165
74 3 2.25778 6.1277 26.6106
ITEM: TIMESTEP
800
ITEM: NUMBER OF ATOMS
74
ITEM: BOX BOUNDS xy xz yz pp pp ff
-3.7004999999999999e+00 7.4009999999999998e+00 -3.7004999999999999e+00
0.0000000000000000e+00 6.4094540134086300e+00 0.0000000000000000e+00
0.0000000000000000e+00 4.0329638543820927e+01 0.0000000000000000e+00
ITEM: ATOMS id type xu yu zu
1 1 0.120955 -0.185616 19.9972
2 1 1.20121 0.6115 19.8262
3 1 -1.35015 1.85547 20.0229
4 1 -0.223937 2.56309 19.6343
5 1 -2.49275 4.15358 20.6201
6 1 -1.26965 4.86247 20.4709
7 1 2.43922 -0.155094 20.3537
8 1 3.74307 0.408853 20.6983
9 1 0.893459 1.93242 19.414
10 1 -0.125714 4.08513 19.7197
11 1 1.21327 4.72188 19.874
12 1 4.90204 -0.332027 20.3251
13 1 5.98256 0.426527 20.1793
14 1 3.94551 1.87852 21.2009
15 1 4.93999 2.71325 20.5782
16 1 2.51795 4.34315 19.8352
17 1 3.77395 4.89795 20.0139
18 2 0 0 0
19 2 3.7005 0 2.35169
20 2 3.7005 2.13648 3.13559
21 2 3.68942 2.12757 5.58126
22 2 1.81675 1.23627 6.40018
23 2 1.72815 1.01854 8.80498
24 2 5.53775 3.25755 9.65821
25 2 3.64772 0.0364268 11.9448
26 2 3.58803 2.17969 12.7951
27 2 3.64075 2.03655 15.1209
28 2 1.9565 1.13503 16.0381
29 2 2.40258 1.38015 18.2453
30 2 1.85025 3.20473 0
31 2 5.55075 3.20473 2.35169
32 2 5.55075 5.34121 3.13559
33 2 5.44656 5.46912 5.54989
34 2 3.73095 4.25087 6.53364
35 2 3.55501 4.30875 8.86466
36 2 7.38112 6.43977 9.56196
37 2 5.47738 3.28586 11.9887
38 2 5.49314 5.51194 12.838
39 2 5.48786 5.42097 15.1127
40 2 3.51555 4.24832 16.099
41 2 3.42018 3.53158 18.3565
42 2 3.7005 0 0
43 2 7.401 0 2.35169
44 2 7.401 2.13648 3.13559
45 2 7.34677 2.2606 5.50123
46 2 5.60181 1.11385 6.48138
47 2 5.45618 1.09522 8.78563
48 2 9.21477 3.1371 9.76029
49 2 7.27888 -0.0484813 11.9558
50 2 7.21248 2.1158 12.8832
51 2 7.44321 2.27855 15.2036
52 2 5.51462 1.24616 16.0801
53 2 4.82956 1.30583 18.2581
54 2 5.55075 3.20473 0
55 2 9.25125 3.20473 2.35169
56 2 9.25125 5.34121 3.13559
57 2 9.41025 5.35116 5.46606
58 2 7.32621 4.41617 6.35469
59 2 7.48438 4.31589 8.79617
60 2 10.9431 6.39811 9.70866
61 2 9.07521 3.18528 12.0508
62 2 9.28776 5.30523 12.904
63 2 9.161 5.47457 15.2304
64 2 7.33061 4.46139 15.9348
65 2 7.31498 5.39472 17.9858
66 3 2.47585 0.911845 25.2475
67 3 0.365656 4.08231 28.9145
68 3 -0.611134 6.4336 28.4569
69 3 4.18969 -1.63855 24.3193
70 3 5.92714 2.29201 25.2912
71 3 2.84368 3.72739 23.0218
72 3 3.57682 4.067 28.0473
73 3 7.32599 0.14277 23.564
74 3 2.06458 6.33921 26.8454
ITEM: TIMESTEP
900
ITEM: NUMBER OF ATOMS
74
ITEM: BOX BOUNDS xy xz yz pp pp ff
-3.7004999999999999e+00 7.4009999999999998e+00 -3.7004999999999999e+00
0.0000000000000000e+00 6.4094540134086300e+00 0.0000000000000000e+00
0.0000000000000000e+00 4.0329638543820927e+01 0.0000000000000000e+00
ITEM: ATOMS id type xu yu zu
1 1 -0.0827246 -0.216521 20.1724
2 1 1.13116 0.47121 19.9134
3 1 -1.27802 1.99883 19.8831
4 1 -0.0747161 2.55969 19.7491
5 1 -2.5276 4.08657 20.469
6 1 -1.35503 4.71714 20.4512
7 1 2.29653 -0.25626 20.459
8 1 3.57434 0.390374 20.6305
9 1 1.03543 1.75859 19.4939
10 1 -0.0863765 4.15643 19.8781
11 1 1.18515 4.78669 19.8797
12 1 4.84293 -0.295908 20.414
13 1 6.03987 0.528146 19.8468
14 1 3.70227 1.94911 20.9575
15 1 4.88286 2.71212 20.6707
16 1 2.3865 4.19921 19.7654
17 1 3.63396 4.7694 20.1333
18 2 0 0 0
19 2 3.7005 0 2.35169
20 2 3.7005 2.13648 3.13559
21 2 3.73151 2.13776 5.41441
22 2 1.76849 1.06461 6.38802
23 2 1.68126 1.06148 8.66406
24 2 5.52192 3.2511 9.55281
25 2 3.63572 0.0541341 11.8843
26 2 3.62135 2.24611 12.7196
27 2 3.75486 2.30954 15.0494
28 2 1.847 1.14093 16.0172
29 2 2.49899 1.123 18.2152
30 2 1.85025 3.20473 0
31 2 5.55075 3.20473 2.35169
32 2 5.55075 5.34121 3.13559
33 2 5.48978 5.42563 5.48968
34 2 3.69745 4.28599 6.39849
35 2 3.68546 4.16044 8.77594
36 2 7.28542 6.4386 9.52213
37 2 5.52741 3.31195 11.92
38 2 5.49371 5.34359 12.65
39 2 5.50428 5.44542 15.0748
40 2 3.63527 4.33526 16.0105
41 2 3.3794 3.42355 18.2491
42 2 3.7005 0 0
43 2 7.401 0 2.35169
44 2 7.401 2.13648 3.13559
45 2 7.37453 2.29382 5.459
46 2 5.52724 1.11664 6.24484
47 2 5.5134 1.13505 8.66848
48 2 9.11995 3.13249 9.47555
49 2 7.22084 0.105861 12.0296
50 2 7.36675 2.16616 12.8837
51 2 7.50228 2.29986 15.2391
52 2 5.54646 1.1654 16.0048
53 2 4.83052 1.40201 18.3357
54 2 5.55075 3.20473 0
55 2 9.25125 3.20473 2.35169
56 2 9.25125 5.34121 3.13559
57 2 9.2697 5.31303 5.54414
58 2 7.46636 4.40901 6.41968
59 2 7.40546 4.35614 8.67572
60 2 11.0327 6.39802 9.63264
61 2 9.12062 3.16858 11.8999
62 2 9.03901 5.37185 12.7515
63 2 9.19445 5.41037 15.1656
64 2 7.32919 4.40372 16.0035
65 2 7.43151 5.49252 18.0527
66 3 2.63143 1.02374 25.6153
67 3 0.452972 4.07782 29.5795
68 3 -0.353161 6.47523 28.6036
69 3 4.42836 -1.44279 23.8443
70 3 5.87802 2.03333 25.3589
71 3 2.87542 3.39846 23.2408
72 3 3.44803 4.44387 28.1464
73 3 7.6762 0.191811 23.4989
74 3 2.01402 6.19151 27.2179
ITEM: TIMESTEP
1000
ITEM: NUMBER OF ATOMS
74
ITEM: BOX BOUNDS xy xz yz pp pp ff
-3.7004999999999999e+00 7.4009999999999998e+00 -3.7004999999999999e+00
0.0000000000000000e+00 6.4094540134086300e+00 0.0000000000000000e+00
0.0000000000000000e+00 4.0329638543820927e+01 0.0000000000000000e+00
ITEM: ATOMS id type xu yu zu
1 1 -0.118684 -0.278245 19.8394
2 1 1.19123 0.403425 19.8782
3 1 -1.23148 1.99783 19.9582
4 1 0.0202262 2.57211 19.8483
5 1 -2.7242 4.18893 20.6227
6 1 -1.41688 4.61907 20.4053
7 1 2.28867 -0.39096 20.4525
8 1 3.57091 0.281795 20.6523
9 1 1.06246 1.65597 19.8224
10 1 -0.0976687 3.95961 19.8442
11 1 1.24573 4.97305 19.9289
12 1 4.93704 -0.10423 20.5651
13 1 6.08292 0.598874 20.1218
14 1 3.83476 1.79237 20.6063
15 1 4.80748 2.77066 20.5558
16 1 2.36732 4.22748 19.6483
17 1 3.50591 4.75013 20.0207
18 2 0 0 0
19 2 3.7005 0 2.35169
20 2 3.7005 2.13648 3.13559
21 2 3.59196 2.18398 5.46637
22 2 1.79836 1.06722 6.21903
23 2 1.75807 1.03633 8.60138
24 2 5.57314 3.16565 9.49118
25 2 3.53159 0.162346 11.7648
26 2 3.71842 2.2346 12.6083
27 2 3.73888 2.38026 14.8802
28 2 1.86303 1.13245 15.8436
29 2 2.3096 1.03698 18.1491
30 2 1.85025 3.20473 0
31 2 5.55075 3.20473 2.35169
32 2 5.55075 5.34121 3.13559
33 2 5.60481 5.26603 5.4653
34 2 3.70757 4.25926 6.25947
35 2 3.65484 4.25067 8.59435
36 2 7.31031 6.56819 9.50264
37 2 5.55356 3.11884 11.7867
38 2 5.39252 5.41847 12.7028
39 2 5.53387 5.41249 15.0553
40 2 3.73653 4.48609 15.9968
41 2 3.24603 3.29033 18.2139
42 2 3.7005 0 0
43 2 7.401 0 2.35169
44 2 7.401 2.13648 3.13559
45 2 7.42539 2.14874 5.50642
46 2 5.5532 1.10466 6.21724
47 2 5.52651 1.06171 8.5689
48 2 9.17043 3.26484 9.40325
49 2 7.2962 0.0748359 11.9426
50 2 7.40557 2.29787 12.841
51 2 7.32813 2.19156 15.2668
52 2 5.61405 1.13336 15.9954
53 2 4.96334 1.36646 18.1128
54 2 5.55075 3.20473 0
55 2 9.25125 3.20473 2.35169
56 2 9.25125 5.34121 3.13559
57 2 9.20444 5.4375 5.4745
58 2 7.3586 4.29286 6.31427
59 2 7.23021 4.31071 8.63665
60 2 10.9938 6.34857 9.50218
61 2 9.23664 3.3188 11.6913
62 2 9.0084 5.35999 12.7135
63 2 9.18896 5.41253 15.0557
64 2 7.38276 4.51124 16.0963
65 2 7.50298 5.45547 18.3353
66 3 2.76508 1.03008 25.8033
67 3 0.875958 4.09756 30.1349
68 3 -0.33993 6.62387 28.8698
69 3 4.6946 -0.977016 23.4213
70 3 5.87201 1.81478 25.1817
71 3 2.84596 3.15087 23.4123
72 3 3.34425 4.51993 28.501
73 3 7.87145 0.219957 23.4476
74 3 1.82208 6.0431 27.4293
ITEM: TIMESTEP
1100
ITEM: NUMBER OF ATOMS
74
ITEM: BOX BOUNDS xy xz yz pp pp ff
-3.7004999999999999e+00 7.4009999999999998e+00 -3.7004999999999999e+00
0.0000000000000000e+00 6.4094540134086300e+00 0.0000000000000000e+00
0.0000000000000000e+00 4.0329638543820927e+01 0.0000000000000000e+00
ITEM: ATOMS id type xu yu zu
1 1 -0.0460153 -0.227362 20.0012
2 1 1.18944 0.58019 19.8723
3 1 -1.26398 1.77042 19.8463
4 1 -0.0809117 2.58787 19.869
5 1 -2.58925 4.10092 20.2693
6 1 -1.41187 4.74837 20.4168
7 1 2.37086 -0.234595 20.4976
8 1 3.67028 0.261093 20.6412
9 1 1.06987 1.84427 19.6251
10 1 -0.0933707 3.96102 19.9877
11 1 1.15411 4.72553 20.0757
12 1 4.90114 -0.414768 20.5547
13 1 6.086 0.399141 20.1119
14 1 3.76207 1.94821 20.9548
15 1 4.82636 2.67588 20.5045
16 1 2.4375 4.29871 19.7367
17 1 3.70586 4.80692 19.8037
18 2 0 0 0
19 2 3.7005 0 2.35169
20 2 3.7005 2.13648 3.13559
21 2 3.66607 2.13749 5.48256
22 2 1.88229 0.982032 6.30768
23 2 1.76457 1.14842 8.60075
24 2 5.42307 3.12879 9.40523
25 2 3.46838 0.0611885 11.811
26 2 3.63217 2.25459 12.4757
27 2 3.72491 2.2241 14.8796
28 2 1.86505 1.26102 15.756
29 2 2.35789 1.12114 18.2103
30 2 1.85025 3.20473 0
31 2 5.55075 3.20473 2.35169
32 2 5.55075 5.34121 3.13559
33 2 5.50744 5.30855 5.40814
34 2 3.59453 4.3498 6.2431
35 2 3.6471 4.32637 8.51763
36 2 7.34567 6.44425 9.38283
37 2 5.61788 3.2804 11.7646
38 2 5.45095 5.37119 12.6981
39 2 5.6586 5.43669 15.0377
40 2 3.57678 4.30888 15.9807
41 2 3.2686 3.31988 18.0782
42 2 3.7005 0 0
43 2 7.401 0 2.35169
44 2 7.401 2.13648 3.13559
45 2 7.3671 2.03936 5.41128
46 2 5.47281 1.13206 6.36193
47 2 5.50535 1.00038 8.59261
48 2 9.17999 3.29961 9.35808
49 2 7.24721 0.0711326 11.7775
50 2 7.45957 2.26646 12.6937
51 2 7.36685 2.39571 15.1599
52 2 5.43589 1.1324 15.886
53 2 4.81736 1.11785 18.3523
54 2 5.55075 3.20473 0
55 2 9.25125 3.20473 2.35169
56 2 9.25125 5.34121 3.13559
57 2 9.24477 5.34738 5.3817
58 2 7.39182 4.16844 6.28241
59 2 7.33521 4.38043 8.66575
60 2 11.0526 6.39891 9.46029
61 2 9.2731 3.38792 11.7374
62 2 9.19023 5.48283 12.6437
63 2 9.22297 5.44668 15.0324
64 2 7.48686 4.43754 16.1884
65 2 7.37327 5.40339 18.2112
66 3 2.86183 0.901424 25.7772
67 3 1.32534 4.29673 30.5439
68 3 -0.498861 6.74383 29.3762
69 3 5.09002 -0.37626 23.1415
70 3 5.88879 1.56818 24.8056
71 3 2.71672 3.00942 23.4499
72 3 3.52805 4.21942 29.144
73 3 7.96867 0.198225 23.3785
74 3 1.44783 6.07615 27.3297
ITEM: TIMESTEP
1200
ITEM: NUMBER OF ATOMS
74
ITEM: BOX BOUNDS xy xz yz pp pp ff
-3.7004999999999999e+00 7.4009999999999998e+00 -3.7004999999999999e+00
0.0000000000000000e+00 6.4094540134086300e+00 0.0000000000000000e+00
0.0000000000000000e+00 4.0329638543820927e+01 0.0000000000000000e+00
ITEM: ATOMS id type xu yu zu
1 1 -0.101494 -0.352871 19.9416
2 1 1.0268 0.427641 19.7899
3 1 -1.37127 1.99338 20.0189
4 1 -0.180902 2.57893 19.7219
5 1 -2.55519 4.21433 20.3972
6 1 -1.31522 4.82826 20.5636
7 1 2.355 -0.188943 20.5091
8 1 3.71562 0.362413 20.8969
9 1 0.810247 1.73541 19.5204
10 1 -0.0309607 4.02473 19.8946
11 1 1.31405 4.68605 20.0001
12 1 5.04388 -0.436013 20.5888
13 1 6.12628 0.380172 20.0372
14 1 3.82422 1.84112 21.0593
15 1 4.87644 2.75679 20.5467
16 1 2.38689 4.15997 19.4701
17 1 3.69732 4.67899 19.8062
18 2 0 0 0
19 2 3.7005 0 2.35169
20 2 3.7005 2.13648 3.13559
21 2 3.70923 2.1435 5.4344
22 2 1.8198 1.03072 6.34811
23 2 1.81036 1.1599 8.64993
24 2 5.47195 3.30126 9.41994
25 2 3.68119 -0.0083176 11.7647
26 2 3.68713 2.2405 12.4987
27 2 3.65936 2.17812 14.7706
28 2 1.73637 1.16294 15.9093
29 2 2.36379 1.21299 18.1836
30 2 1.85025 3.20473 0