ITEM: TIMESTEP
0
ITEM: NUMBER OF ATOMS
69
ITEM: BOX BOUNDS xy xz yz pp pp pp
-3.7004999999999999e+00 7.4009999999999998e+00 -3.7004999999999999e+00
0.0000000000000000e+00 6.4094540134086300e+00 0.0000000000000000e+00
0.0000000000000000e+00 4.0329638543820927e+01 0.0000000000000000e+00
ITEM: ATOMS id type xs ys zs
18 2 0 0 0
19 2 0.5 0 0.0583118
20 2 0.666667 0.333333 0.077749
21 2 0.666667 0.333333 0.136061
22 2 0.333333 0.166667 0.155498
30 2 0.5 0.5 0
31 2 1 0.5 0.0583118
32 2 0.166667 0.833333 0.077749
33 2 0.166667 0.833333 0.136061
34 2 0.833333 0.666667 0.155498
42 2 0.5 0 0
43 2 0 0 0.0583118
44 2 0.166667 0.333333 0.077749
45 2 0.166667 0.333333 0.136061
46 2 0.833333 0.166667 0.155498
54 2 1 0.5 0
55 2 0.5 0.5 0.0583118
56 2 0.666667 0.833333 0.077749
57 2 0.666667 0.833333 0.136061
58 2 0.333333 0.666667 0.155498
23 2 0.333333 0.166667 0.21381
24 2 1 0.5 0.233247
25 2 0.5 0 0.291559
26 2 0.666667 0.333333 0.310996
35 2 0.833333 0.666667 0.21381
36 2 0.5 1 0.233247
37 2 1 0.5 0.291559
38 2 0.166667 0.833333 0.310996
47 2 0.833333 0.166667 0.21381
48 2 0.5 0.5 0.233247
49 2 0 0 0.291559
50 2 0.166667 0.333333 0.310996
59 2 0.333333 0.666667 0.21381
60 2 1 1 0.233247
61 2 0.5 0.5 0.291559
62 2 0.666667 0.833333 0.310996
1 1 0 0 0.496648
2 1 0.222222 0.111111 0.496648
3 1 -6.20862e-17 0.333333 0.496648
4 1 0.222222 0.444444 0.496648
5 1 1 0.666667 0.496648
6 1 0.222222 0.777778 0.496648
7 1 0.333333 0 0.496648
8 1 0.555556 0.111111 0.496648
9 1 0.333333 0.333333 0.496648
10 1 0.333333 0.666667 0.496648
11 1 0.555556 0.777778 0.496648
12 1 0.666667 0 0.496648
13 1 0.888889 0.111111 0.496648
14 1 0.666667 0.333333 0.496648
15 1 0.888889 0.444444 0.496648
16 1 0.666667 0.666667 0.496648
17 1 0.888889 0.777778 0.496648
27 2 0.666667 0.333333 0.369308
28 2 0.333333 0.166667 0.388745
29 2 0.333333 0.166667 0.447057
39 2 0.166667 0.833333 0.369308
40 2 0.833333 0.666667 0.388745
41 2 0.833333 0.666667 0.447057
51 2 0.166667 0.333333 0.369308
52 2 0.833333 0.166667 0.388745
53 2 0.833333 0.166667 0.447057
63 2 0.666667 0.833333 0.369308
64 2 0.333333 0.666667 0.388745
65 2 0.333333 0.666667 0.447057
66 3 0.25 0.25 0.553678
67 3 0.25 0.75 0.553678
68 3 0.75 0.25 0.553678
69 3 0.75 0.75 0.553678
ITEM: TIMESTEP
12
ITEM: NUMBER OF ATOMS
69
ITEM: BOX BOUNDS xy xz yz pp pp pp
-3.7004999999999999e+00 7.4009999999999998e+00 -3.7004999999999999e+00
0.0000000000000000e+00 6.4094540134086300e+00 0.0000000000000000e+00
0.0000000000000000e+00 4.0329638543820927e+01 0.0000000000000000e+00
ITEM: ATOMS id type xs ys zs
18 2 0 0 0
19 2 0.5 0 0.0583118
20 2 0.666667 0.333333 0.077749
21 2 0.666668 0.333332 0.135478
22 2 0.333335 0.166666 0.155964
30 2 0.5 0.5 0
31 2 1 0.5 0.0583118
32 2 0.166667 0.833333 0.077749
33 2 0.166669 0.833331 0.135478
34 2 0.833334 0.666665 0.155964
42 2 0.5 0 0
43 2 0 0 0.0583118
44 2 0.166667 0.333333 0.077749
45 2 0.166665 0.333335 0.135479
46 2 0.833332 0.166668 0.155967
54 2 1 0.5 0
55 2 0.5 0.5 0.0583118
56 2 0.666667 0.833333 0.077749
57 2 0.666665 0.833335 0.135479
58 2 0.333332 0.666668 0.155968
23 2 0.333346 0.166659 0.213396
24 2 0.999992 0.500006 0.233733
25 2 0.499955 0.000119258 0.291196
26 2 0.666637 0.333363 0.311809
35 2 0.833341 0.666654 0.213396
36 2 0.499994 1.00001 0.233733
37 2 0.999881 0.500045 0.291196
38 2 0.16667 0.83333 0.31177
47 2 0.833323 0.166677 0.213401
48 2 0.500007 0.499993 0.233717
49 2 7.72899e-05 -7.72899e-05 0.291147
50 2 0.166709 0.333318 0.311673
59 2 0.333324 0.666676 0.213401
60 2 1.00001 0.999994 0.233715
61 2 0.500097 0.499903 0.291161
62 2 0.666682 0.833291 0.311673
1 1 0.00128523 -0.00128523 0.499755
2 1 0.223528 0.115086 0.496199
3 1 0.00136447 0.331463 0.494244
4 1 0.225528 0.439192 0.494802
5 1 0.996298 0.667505 0.493673
6 1 0.221959 0.778041 0.495222
7 1 0.332495 0.00370219 0.493673
8 1 0.556672 0.112961 0.498958
9 1 0.312588 0.318462 0.493675
10 1 0.33634 0.66366 0.497279
11 1 0.560808 0.774472 0.494802
12 1 0.668537 -0.00136447 0.494244
13 1 0.890365 0.109635 0.495626
14 1 0.678974 0.321026 0.503057
15 1 0.887039 0.443328 0.498958
16 1 0.681538 0.687412 0.493675
17 1 0.884914 0.776472 0.496199
27 2 0.666279 0.333721 0.36991
28 2 0.333058 0.165095 0.390515
29 2 0.329306 0.179841 0.450255
39 2 0.166646 0.833354 0.369891
40 2 0.834905 0.666942 0.390515
41 2 0.820159 0.670694 0.450255
51 2 0.167039 0.332874 0.369757
52 2 0.832975 0.167025 0.389668
53 2 0.838138 0.161862 0.448092
63 2 0.667126 0.832961 0.369757
64 2 0.333313 0.666687 0.389832
65 2 0.330385 0.669615 0.448681
66 3 0.254811 0.252461 0.553466
67 3 0.250121 0.749879 0.554685
68 3 0.745704 0.254296 0.553484
69 3 0.747539 0.745189 0.553466
