ITEM: TIMESTEP
0
ITEM: NUMBER OF ATOMS
74
ITEM: BOX BOUNDS xy xz yz pp pp pp
-3.7004999999999999e+00 7.4009999999999998e+00 -3.7004999999999999e+00
0.0000000000000000e+00 6.4094540134086300e+00 0.0000000000000000e+00
0.0000000000000000e+00 4.0329638543820927e+01 0.0000000000000000e+00
ITEM: ATOMS id type xs ys zs
18 2 0 0 0
19 2 0.5 0 0.0583118
20 2 0.666667 0.333333 0.077749
21 2 0.666667 0.333333 0.136061
22 2 0.333333 0.166667 0.155498
30 2 0.5 0.5 0
31 2 1 0.5 0.0583118
32 2 0.166667 0.833333 0.077749
33 2 0.166667 0.833333 0.136061
34 2 0.833333 0.666667 0.155498
42 2 0.5 0 0
43 2 0 0 0.0583118
44 2 0.166667 0.333333 0.077749
45 2 0.166667 0.333333 0.136061
46 2 0.833333 0.166667 0.155498
54 2 1 0.5 0
55 2 0.5 0.5 0.0583118
56 2 0.666667 0.833333 0.077749
57 2 0.666667 0.833333 0.136061
58 2 0.333333 0.666667 0.155498
23 2 0.333333 0.166667 0.21381
24 2 1 0.5 0.233247
25 2 0.5 0 0.291559
26 2 0.666667 0.333333 0.310996
35 2 0.833333 0.666667 0.21381
36 2 0.5 1 0.233247
37 2 1 0.5 0.291559
38 2 0.166667 0.833333 0.310996
47 2 0.833333 0.166667 0.21381
48 2 0.5 0.5 0.233247
49 2 0 0 0.291559
50 2 0.166667 0.333333 0.310996
59 2 0.333333 0.666667 0.21381
60 2 1 1 0.233247
61 2 0.5 0.5 0.291559
62 2 0.666667 0.833333 0.310996
1 1 0 0 0.496648
2 1 0.222222 0.111111 0.496648
3 1 -6.20862e-17 0.333333 0.496648
4 1 0.222222 0.444444 0.496648
5 1 1 0.666667 0.496648
6 1 0.222222 0.777778 0.496648
7 1 0.333333 0 0.496648
8 1 0.555556 0.111111 0.496648
9 1 0.333333 0.333333 0.496648
10 1 0.333333 0.666667 0.496648
11 1 0.555556 0.777778 0.496648
12 1 0.666667 0 0.496648
13 1 0.888889 0.111111 0.496648
14 1 0.666667 0.333333 0.496648
15 1 0.888889 0.444444 0.496648
16 1 0.666667 0.666667 0.496648
17 1 0.888889 0.777778 0.496648
27 2 0.666667 0.333333 0.369308
28 2 0.333333 0.166667 0.388745
29 2 0.333333 0.166667 0.447057
39 2 0.166667 0.833333 0.369308
40 2 0.833333 0.666667 0.388745
41 2 0.833333 0.666667 0.447057
51 2 0.166667 0.333333 0.369308
52 2 0.833333 0.166667 0.388745
53 2 0.833333 0.166667 0.447057
63 2 0.666667 0.833333 0.369308
64 2 0.333333 0.666667 0.388745
65 2 0.333333 0.666667 0.447057
66 3 0.166667 0.166667 0.553678
67 3 0.166667 0.5 0.553678
68 3 0.166667 0.833333 0.553678
69 3 0.5 0.166667 0.553678
70 3 0.5 0.5 0.553678
71 3 0.5 0.833333 0.553678
72 3 0.833333 0.166667 0.553678
73 3 0.833333 0.5 0.553678
74 3 0.833333 0.833333 0.553678
ITEM: TIMESTEP
3
ITEM: NUMBER OF ATOMS
74
ITEM: BOX BOUNDS xy xz yz pp pp pp
-3.7004999999999999e+00 7.4009999999999998e+00 -3.7004999999999999e+00
0.0000000000000000e+00 6.4094540134086300e+00 0.0000000000000000e+00
0.0000000000000000e+00 4.0329638543820927e+01 0.0000000000000000e+00
ITEM: ATOMS id type xs ys zs
18 2 0 0 0
19 2 0.5 0 0.0583118
20 2 0.666667 0.333333 0.077749
21 2 0.666667 0.333333 0.135642
22 2 0.333334 0.166667 0.155914
30 2 0.5 0.5 0
31 2 1 0.5 0.0583118
32 2 0.166667 0.833333 0.077749
33 2 0.166667 0.833333 0.135642
34 2 0.833333 0.666666 0.155914
42 2 0.5 0 0
43 2 0 0 0.0583118
44 2 0.166667 0.333333 0.077749
45 2 0.166667 0.333334 0.135642
46 2 0.833333 0.166667 0.155914
54 2 1 0.5 0
55 2 0.5 0.5 0.0583118
56 2 0.666667 0.833333 0.077749
57 2 0.666666 0.833333 0.135642
58 2 0.333333 0.666667 0.155915
23 2 0.333335 0.166667 0.213432
24 2 1 0.500001 0.233619
25 2 0.500008 6.3733e-05 0.291071
26 2 0.666668 0.333332 0.311378
35 2 0.833333 0.666665 0.213432
36 2 0.499999 1 0.233619
37 2 0.999936 0.499992 0.291071
38 2 0.166673 0.833327 0.311349
47 2 0.833332 0.166668 0.213432
48 2 0.500001 0.499999 0.233619
49 2 1.53169e-05 -1.53169e-05 0.29105
50 2 0.166667 0.333339 0.311328
59 2 0.333333 0.666667 0.213432
60 2 1 0.999999 0.233618
61 2 0.50004 0.49996 0.291063
62 2 0.666661 0.833333 0.311328
1 1 -0.000336929 0.000336929 0.497619
2 1 0.222033 0.117671 0.496009
3 1 0.0019752 0.331792 0.495609
4 1 0.229409 0.437994 0.495747
5 1 0.993907 0.667011 0.495528
6 1 0.22243 0.77757 0.495696
7 1 0.332989 0.00609304 0.495528
8 1 0.558666 0.12148 0.497112
9 1 0.310708 0.318778 0.494995
10 1 0.337321 0.662679 0.496288
11 1 0.562006 0.770591 0.495747
12 1 0.668208 -0.0019752 0.495609
13 1 0.891487 0.108513 0.495946
14 1 0.675531 0.324469 0.499113
15 1 0.87852 0.441334 0.497112
16 1 0.681222 0.689292 0.494995
17 1 0.882329 0.777967 0.496009
27 2 0.666644 0.333356 0.369369
28 2 0.333341 0.166476 0.389256
29 2 0.330823 0.171252 0.44904
39 2 0.166749 0.833251 0.36945
40 2 0.833524 0.666659 0.389256
41 2 0.828748 0.669177 0.44904
51 2 0.166785 0.333492 0.369438
52 2 0.833222 0.166778 0.389125
53 2 0.836131 0.163869 0.447496
63 2 0.666508 0.833215 0.369438
64 2 0.333323 0.666677 0.389432
65 2 0.331359 0.668641 0.448039
66 3 0.167458 0.166797 0.553842
67 3 0.166987 0.499829 0.554412
68 3 0.166859 0.833141 0.554464
69 3 0.501389 0.167874 0.553849
70 3 0.500403 0.499597 0.553783
71 3 0.500171 0.833013 0.554412
72 3 0.833619 0.166381 0.554376
73 3 0.832126 0.498611 0.553849
74 3 0.833203 0.832542 0.553842
