ITEM: TIMESTEP
0
ITEM: NUMBER OF ATOMS
69
ITEM: BOX BOUNDS xy xz yz pp pp pp
-3.7004999999999999e+00 7.4009999999999998e+00 -3.7004999999999999e+00
0.0000000000000000e+00 6.4094540134086300e+00 0.0000000000000000e+00
0.0000000000000000e+00 4.0329638543820927e+01 0.0000000000000000e+00
ITEM: ATOMS id type xs ys zs
18 2 0 0 0
19 2 0.5 0 0.0583118
20 2 0.666667 0.333333 0.077749
21 2 0.666668 0.333332 0.135478
22 2 0.333335 0.166666 0.155964
30 2 0.5 0.5 0
31 2 1 0.5 0.0583118
32 2 0.166667 0.833333 0.077749
33 2 0.166669 0.833331 0.135478
34 2 0.833334 0.666665 0.155964
42 2 0.5 0 0
43 2 0 0 0.0583118
44 2 0.166667 0.333333 0.077749
45 2 0.166665 0.333335 0.135479
46 2 0.833332 0.166668 0.155967
54 2 1 0.5 0
55 2 0.5 0.5 0.0583118
56 2 0.666667 0.833333 0.077749
57 2 0.666665 0.833335 0.135479
58 2 0.333332 0.666668 0.155968
23 2 0.333346 0.166659 0.213396
24 2 0.999992 0.500006 0.233733
25 2 0.499955 0.000119258 0.291196
26 2 0.666637 0.333363 0.311809
35 2 0.833341 0.666654 0.213396
36 2 0.499994 8.16283e-06 0.233733
37 2 0.999881 0.500045 0.291196
38 2 0.16667 0.83333 0.31177
47 2 0.833323 0.166677 0.213401
48 2 0.500007 0.499993 0.233717
49 2 7.72899e-05 0.999923 0.291147
50 2 0.166709 0.333318 0.311673
59 2 0.333324 0.666676 0.213401
60 2 6.30477e-06 0.999994 0.233715
61 2 0.500097 0.499903 0.291161
62 2 0.666682 0.833291 0.311673
1 1 0.00128523 0.998715 0.499755
2 1 0.223528 0.115086 0.496199
3 1 0.00136447 0.331463 0.494244
4 1 0.225528 0.439192 0.494802
5 1 0.996298 0.667505 0.493673
6 1 0.221959 0.778041 0.495222
7 1 0.332495 0.00370219 0.493673
8 1 0.556672 0.112961 0.498958
9 1 0.312588 0.318462 0.493675
10 1 0.33634 0.66366 0.497279
11 1 0.560808 0.774472 0.494802
12 1 0.668537 0.998636 0.494244
13 1 0.890365 0.109635 0.495626
15 1 0.887039 0.443328 0.498958
16 1 0.681538 0.687412 0.493675
17 1 0.884914 0.776472 0.496199
27 2 0.666279 0.333721 0.36991
28 2 0.333058 0.165095 0.390515
29 2 0.329306 0.179841 0.450255
39 2 0.166646 0.833354 0.369891
40 2 0.834905 0.666942 0.390515
41 2 0.820159 0.670694 0.450255
51 2 0.167039 0.332874 0.369757
52 2 0.832975 0.167025 0.389668
53 2 0.838138 0.161862 0.448092
63 2 0.667126 0.832961 0.369757
64 2 0.333313 0.666687 0.389832
65 2 0.330385 0.669615 0.448681
14 1 0.678974 0.321026 0.503057
66 3 0.254811 0.252461 0.553466
67 3 0.250121 0.749879 0.554685
68 3 0.745704 0.254296 0.553484
69 3 0.747539 0.745189 0.553466
ITEM: TIMESTEP
25
ITEM: NUMBER OF ATOMS
69
ITEM: BOX BOUNDS xy xz yz pp pp pp
-3.7004999999999999e+00 7.4009999999999998e+00 -3.7004999999999999e+00
0.0000000000000000e+00 6.4094540134086300e+00 0.0000000000000000e+00
0.0000000000000000e+00 4.0329638543820927e+01 0.0000000000000000e+00
ITEM: ATOMS id type xs ys zs
18 2 0 0 0
19 2 0.5 0 0.0583118
20 2 0.666667 0.333333 0.077749
21 2 0.671702 0.336811 0.134814
22 2 0.333443 0.165052 0.155672
30 2 0.5 0.5 0
31 2 1 0.5 0.0583118
32 2 0.166667 0.833333 0.077749
33 2 0.168126 0.835115 0.13537
34 2 0.830452 0.66118 0.156357
42 2 0.5 0 0
43 2 0 0 0.0583118
44 2 0.166667 0.333333 0.077749
45 2 0.167258 0.329392 0.135355
46 2 0.83181 0.167383 0.155725
54 2 1 0.5 0
55 2 0.5 0.5 0.0583118
56 2 0.666667 0.833333 0.077749
57 2 0.665181 0.837395 0.135506
58 2 0.334903 0.663724 0.155508
23 2 0.335109 0.16832 0.213408
24 2 0.998008 0.496654 0.233367
25 2 0.495229 -0.000108554 0.291393
26 2 0.662474 0.332682 0.312289
35 2 0.837433 0.671255 0.214035
36 2 0.495649 -0.000328882 0.233731
37 2 1.00213 0.502211 0.291242
38 2 0.166665 0.831873 0.312212
47 2 0.833187 0.163511 0.213662
48 2 0.505945 0.503893 0.232674
49 2 -0.00320637 0.997324 0.291136
50 2 0.172399 0.335877 0.312641
59 2 0.332664 0.667256 0.212945
60 2 -0.00248937 0.995276 0.234002
61 2 0.496687 0.498707 0.290537
62 2 0.663812 0.834077 0.312118
1 1 -0.00136804 0.997483 0.500208
2 1 0.221621 0.108993 0.496805
3 1 0.000128341 0.32923 0.493295
4 1 0.22156 0.438932 0.493995
5 1 0.998625 0.669325 0.49456
6 1 0.221033 0.782519 0.495389
7 1 0.33505 0.00246115 0.493707
8 1 0.558878 0.111219 0.49871
9 1 0.310407 0.316666 0.493745
10 1 0.336012 0.664544 0.498042
11 1 0.558737 0.773631 0.494242
12 1 0.670421 0.995341 0.493953
13 1 0.885711 0.104806 0.496664
15 1 0.883343 0.435925 0.499575
16 1 0.680075 0.689618 0.492888
17 1 0.896422 0.781707 0.496788
27 2 0.660613 0.332397 0.369657
28 2 0.337946 0.1679 0.390722
29 2 0.332745 0.184479 0.450458
39 2 0.168955 0.835796 0.369981
40 2 0.842345 0.670067 0.390394
41 2 0.814279 0.669565 0.450215
51 2 0.167394 0.330508 0.369987
52 2 0.833627 0.165264 0.389836
53 2 0.841285 0.162631 0.447457
63 2 0.665484 0.835216 0.370045
64 2 0.332573 0.667928 0.389815
65 2 0.329044 0.67375 0.448071
14 1 0.675561 0.317235 0.503725
66 3 0.254323 0.252098 0.553104
67 3 0.256385 0.753688 0.55551
68 3 0.744766 0.25481 0.554888
69 3 0.750468 0.737928 0.553154
ITEM: TIMESTEP
50
ITEM: NUMBER OF ATOMS
69
ITEM: BOX BOUNDS xy xz yz pp pp pp
-3.7004999999999999e+00 7.4009999999999998e+00 -3.7004999999999999e+00
0.0000000000000000e+00 6.4094540134086300e+00 0.0000000000000000e+00
0.0000000000000000e+00 4.0329638543820927e+01 0.0000000000000000e+00
ITEM: ATOMS id type xs ys zs
18 2 0 0 0
19 2 0.5 0 0.0583118
20 2 0.666667 0.333333 0.077749
21 2 0.675393 0.339317 0.134265
22 2 0.334194 0.163757 0.15545
30 2 0.5 0.5 0
31 2 1 0.5 0.0583118
32 2 0.166667 0.833333 0.077749
33 2 0.168892 0.83576 0.135291
34 2 0.828661 0.657901 0.156678
42 2 0.5 0 0
43 2 0 0 0.0583118
44 2 0.166667 0.333333 0.077749
45 2 0.167583 0.325846 0.135234
46 2 0.831014 0.168192 0.155608
54 2 1 0.5 0
55 2 0.5 0.5 0.0583118
56 2 0.666667 0.833333 0.077749
57 2 0.664289 0.840287 0.135509
58 2 0.335813 0.661218 0.155095
23 2 0.336302 0.169853 0.213376
24 2 0.996678 0.493548 0.233141
25 2 0.49143 -4.25861e-05 0.291577
26 2 0.659195 0.332521 0.312663
35 2 0.84107 0.674258 0.214498
36 2 0.492211 -0.000627145 0.233768
37 2 1.00356 0.503134 0.291357
38 2 0.165885 0.830548 0.31263
47 2 0.832461 0.160451 0.213885
48 2 0.510308 0.507115 0.231827
49 2 -0.0060098 0.995449 0.291289
50 2 0.1763 0.337439 0.313424
59 2 0.331946 0.667505 0.212524
60 2 -0.00362503 0.992639 0.234335
61 2 0.494332 0.498251 0.289994
62 2 0.66102 0.834634 0.312514
1 1 0.00168526 0.998324 0.501398
2 1 0.220078 0.106448 0.497369
3 1 -0.0053131 0.324637 0.491898
4 1 0.217674 0.436818 0.492764
5 1 0.995262 0.6635 0.49473
6 1 0.220718 0.781396 0.495306
7 1 0.334879 0.00528822 0.493056
8 1 0.562543 0.108337 0.49878
9 1 0.308328 0.316227 0.493453
10 1 0.335444 0.662578 0.498653
11 1 0.56088 0.77566 0.493091
12 1 0.668256 0.990957 0.492884
13 1 0.887264 0.106346 0.497052
15 1 0.882864 0.439477 0.500245
16 1 0.68524 0.692202 0.491953
17 1 0.891444 0.77951 0.49701
27 2 0.657412 0.332179 0.369608
28 2 0.341624 0.169791 0.391184
29 2 0.337033 0.191308 0.450752
39 2 0.171384 0.838185 0.370138
40 2 0.848389 0.672664 0.390508
41 2 0.806809 0.666405 0.450698
51 2 0.167821 0.328643 0.370351
52 2 0.833774 0.164222 0.390038
53 2 0.844214 0.161756 0.44735
63 2 0.664725 0.836761 0.370409
64 2 0.331841 0.668557 0.389878
65 2 0.327704 0.677692 0.447626
14 1 0.678375 0.316539 0.505196
66 3 0.257056 0.253023 0.552874
67 3 0.262573 0.757508 0.556719
68 3 0.741889 0.257941 0.556619
69 3 0.752133 0.727486 0.552938
ITEM: TIMESTEP
75
ITEM: NUMBER OF ATOMS
69
ITEM: BOX BOUNDS xy xz yz pp pp pp
-3.7004999999999999e+00 7.4009999999999998e+00 -3.7004999999999999e+00
0.0000000000000000e+00 6.4094540134086300e+00 0.0000000000000000e+00
0.0000000000000000e+00 4.0329638543820927e+01 0.0000000000000000e+00
ITEM: ATOMS id type xs ys zs
18 2 0 0 0
19 2 0.5 0 0.0583118
20 2 0.666667 0.333333 0.077749
21 2 0.676921 0.34025 0.133929
22 2 0.335912 0.162933 0.155347
30 2 0.5 0.5 0
31 2 1 0.5 0.0583118
32 2 0.166667 0.833333 0.077749
33 2 0.168599 0.834588 0.13526
34 2 0.828691 0.658198 0.156867
42 2 0.5 0 0
43 2 0 0 0.0583118
44 2 0.166667 0.333333 0.077749
45 2 0.167504 0.323054 0.135126
46 2 0.831377 0.169056 0.155693
54 2 1 0.5 0
55 2 0.5 0.5 0.0583118
56 2 0.666667 0.833333 0.077749
57 2 0.664325 0.841257 0.13547
58 2 0.335656 0.659452 0.154767
23 2 0.336614 0.171171 0.213272
24 2 0.996446 0.4909 0.233138
25 2 0.489168 0.00048921 0.291716
26 2 0.657355 0.333193 0.312816
35 2 0.843895 0.674592 0.214668
36 2 0.490255 -0.000922324 0.233854
37 2 1.00361 0.502034 0.291557
38 2 0.163871 0.829456 0.312951
47 2 0.830785 0.15765 0.214038
48 2 0.512 0.509153 0.231305
49 2 -0.0080572 0.994747 0.291687
50 2 0.177322 0.337409 0.31387
59 2 0.331192 0.667261 0.212166
60 2 -0.00257329 0.993375 0.234732
61 2 0.493659 0.499015 0.289585
62 2 0.6584 0.834826 0.3128
1 1 0.00496167 0.997227 0.503236
2 1 0.221928 0.112987 0.497961
3 1 -0.00775681 0.324981 0.490369
4 1 0.215073 0.433102 0.491683
5 1 0.992045 0.662928 0.494338
6 1 0.220095 0.776013 0.49529
7 1 0.334773 0.00593542 0.492274
8 1 0.561916 0.106264 0.499404
9 1 0.30413 0.316092 0.493144
10 1 0.334203 0.65916 0.498794
11 1 0.55959 0.776134 0.491907
12 1 0.668084 0.993729 0.491444
13 1 0.889956 0.106456 0.496929
15 1 0.886233 0.44224 0.500737
16 1 0.68545 0.688192 0.491195
17 1 0.886706 0.776774 0.497275
27 2 0.65836 0.333859 0.369752
28 2 0.343329 0.170354 0.391861
29 2 0.34329 0.200415 0.451002
39 2 0.173846 0.840392 0.370296
40 2 0.851776 0.674277 0.390854
41 2 0.798424 0.66124 0.451113
51 2 0.168349 0.327786 0.370805
52 2 0.833108 0.164343 0.390196
53 2 0.847116 0.160816 0.447837
63 2 0.665292 0.837061 0.370762
64 2 0.331273 0.668206 0.389941
65 2 0.325907 0.681353 0.447114
14 1 0.679766 0.312416 0.507137
66 3 0.264024 0.255594 0.552816
67 3 0.268575 0.761486 0.558169
68 3 0.736236 0.263184 0.558759
69 3 0.752454 0.713207 0.553175
ITEM: TIMESTEP
100
ITEM: NUMBER OF ATOMS
69
ITEM: BOX BOUNDS xy xz yz pp pp pp
-3.7004999999999999e+00 7.4009999999999998e+00 -3.7004999999999999e+00
0.0000000000000000e+00 6.4094540134086300e+00 0.0000000000000000e+00
0.0000000000000000e+00 4.0329638543820927e+01 0.0000000000000000e+00
ITEM: ATOMS id type xs ys zs
18 2 0 0 0
19 2 0.5 0 0.0583118
20 2 0.666667 0.333333 0.077749
21 2 0.676178 0.339584 0.133897
22 2 0.33847 0.162535 0.155374
30 2 0.5 0.5 0
31 2 1 0.5 0.0583118
32 2 0.166667 0.833333 0.077749
33 2 0.167287 0.831626 0.135281
34 2 0.830627 0.662171 0.156894
42 2 0.5 0 0
43 2 0 0 0.0583118
44 2 0.166667 0.333333 0.077749
45 2 0.167084 0.321296 0.135049
46 2 0.832883 0.16974 0.155991
54 2 1 0.5 0
55 2 0.5 0.5 0.0583118
56 2 0.666667 0.833333 0.077749
57 2 0.66539 0.840141 0.135399
58 2 0.334403 0.658527 0.154546
23 2 0.33606 0.172209 0.213111
24 2 0.997369 0.488857 0.233393
25 2 0.488514 0.00146599 0.29181
26 2 0.657161 0.33475 0.312719
35 2 0.845743 0.672295 0.214544
36 2 0.489884 -0.00127971 0.23399
37 2 1.0021 0.498827 0.291838
38 2 0.160666 0.828675 0.313131
47 2 0.828197 0.155295 0.21412
48 2 0.510858 0.509837 0.231164
49 2 -0.00927763 0.995303 0.292332
50 2 0.175299 0.335693 0.313929
59 2 0.330515 0.66657 0.211906
60 2 0.000576606 0.997322 0.235176
61 2 0.494711 0.501073 0.289359
62 2 0.656079 0.834632 0.312953
1 1 0.00472813 0.992949 0.505409
2 1 0.220243 0.109264 0.49894
3 1 -0.00395488 0.333828 0.489869
4 1 0.210776 0.437836 0.491725
5 1 0.993041 0.665962 0.494061
6 1 0.218125 0.773959 0.495656
7 1 0.332836 0.00180418 0.492198
8 1 0.55622 0.103815 0.501024
9 1 0.307482 0.322853 0.493054
10 1 0.331673 0.655376 0.498441
11 1 0.556028 0.773621 0.491574
12 1 0.668608 0.997777 0.490722
13 1 0.891142 0.102303 0.497155
15 1 0.889759 0.439776 0.501848
16 1 0.676093 0.682395 0.491374
17 1 0.890059 0.779432 0.497967
27 2 0.663483 0.33756 0.369966
28 2 0.343034 0.16957 0.392598
29 2 0.352391 0.211063 0.45079
39 2 0.176053 0.842217 0.370366
40 2 0.85223 0.674884 0.391314
41 2 0.789872 0.653132 0.450788
51 2 0.169167 0.328187 0.37115
52 2 0.831589 0.165778 0.390117
53 2 0.848967 0.160231 0.447816
63 2 0.667069 0.835722 0.370891
64 2 0.331211 0.666882 0.389844
65 2 0.323042 0.684946 0.445981
14 1 0.684227 0.308678 0.509189
66 3 0.275483 0.259785 0.553478
67 3 0.274263 0.765914 0.559813
68 3 0.727882 0.269944 0.56132
69 3 0.750979 0.695151 0.554137
ITEM: TIMESTEP
125
ITEM: NUMBER OF ATOMS
69
ITEM: BOX BOUNDS xy xz yz pp pp pp
-3.7004999999999999e+00 7.4009999999999998e+00 -3.7004999999999999e+00
0.0000000000000000e+00 6.4094540134086300e+00 0.0000000000000000e+00
0.0000000000000000e+00 4.0329638543820927e+01 0.0000000000000000e+00
ITEM: ATOMS id type xs ys zs
18 2 0 0 0
19 2 0.5 0 0.0583118
20 2 0.666667 0.333333 0.077749
21 2 0.673767 0.337813 0.134219
22 2 0.341289 0.162379 0.15551
30 2 0.5 0.5 0
31 2 1 0.5 0.0583118
32 2 0.166667 0.833333 0.077749
33 2 0.165418 0.82765 0.135345
34 2 0.833863 0.66857 0.156775
42 2 0.5 0 0
43 2 0 0 0.0583118
44 2 0.166667 0.333333 0.077749
45 2 0.166579 0.320747 0.135029
46 2 0.835054 0.169886 0.156439
54 2 1 0.5 0
55 2 0.5 0.5 0.0583118
56 2 0.666667 0.833333 0.077749
57 2 0.667311 0.837401 0.135336
58 2 0.332431 0.658317 0.154447
23 2 0.334974 0.172887 0.212954
24 2 0.999067 0.487484 0.23388
25 2 0.489036 0.00267649 0.29187
26 2 0.658499 0.336963 0.312409
35 2 0.846591 0.668477 0.214236
36 2 0.490742 -0.00174137 0.234161
37 2 0.999173 0.494193 0.292154
38 2 0.156845 0.828225 0.313139
47 2 0.825204 0.153605 0.214159
48 2 0.507732 0.50936 0.23138
49 2 -0.00978196 0.996816 0.293101
50 2 0.170967 0.332727 0.313625
59 2 0.330051 0.665655 0.211789
60 2 0.00479939 1.00292 0.235603
61 2 0.496985 0.504065 0.289334
62 2 0.654241 0.834157 0.312947
1 1 0.00276833 0.990938 0.506501
2 1 0.223832 0.112926 0.498846
3 1 -0.00137201 0.336704 0.489958
4 1 0.216921 0.440911 0.491651
5 1 0.994744 0.666497 0.493693
6 1 0.217677 0.776107 0.495473
7 1 0.332119 0.000690185 0.492451
8 1 0.551829 0.100868 0.502315
9 1 0.301431 0.321513 0.492846
10 1 0.330538 0.657438 0.496963
11 1 0.554666 0.769336 0.490977
12 1 0.665009 0.996655 0.490348
13 1 0.89167 0.102611 0.496807
15 1 0.89071 0.438947 0.502649
16 1 0.67207 0.688121 0.492398
17 1 0.883547 0.777085 0.497956
27 2 0.671235 0.342427 0.37035
28 2 0.341449 0.167995 0.393498
29 2 0.36357 0.224061 0.451229
39 2 0.177764 0.843185 0.370509
40 2 0.8504 0.674937 0.391984
41 2 0.779666 0.640927 0.450645
51 2 0.169911 0.32953 0.371578
52 2 0.829636 0.168205 0.390058
53 2 0.850155 0.158928 0.44844
63 2 0.669607 0.833251 0.371002
64 2 0.332047 0.664989 0.38973
65 2 0.320241 0.688535 0.445593
14 1 0.689551 0.302653 0.51083
66 3 0.290487 0.265633 0.554799
67 3 0.279811 0.771417 0.561786
68 3 0.716738 0.275918 0.564057
69 3 0.747796 0.675385 0.555954
ITEM: TIMESTEP
150
ITEM: NUMBER OF ATOMS
69
ITEM: BOX BOUNDS xy xz yz pp pp pp
-3.7004999999999999e+00 7.4009999999999998e+00 -3.7004999999999999e+00
0.0000000000000000e+00 6.4094540134086300e+00 0.0000000000000000e+00
0.0000000000000000e+00 4.0329638543820927e+01 0.0000000000000000e+00
ITEM: ATOMS id type xs ys zs
18 2 0 0 0
19 2 0.5 0 0.0583118
20 2 0.666667 0.333333 0.077749
21 2 0.670851 0.335746 0.134859
22 2 0.343489 0.162219 0.155708
30 2 0.5 0.5 0
31 2 1 0.5 0.0583118
32 2 0.166667 0.833333 0.077749
33 2 0.1638 0.823982 0.135414
34 2 0.837333 0.675145 0.156573
42 2 0.5 0 0
43 2 0 0 0.0583118
44 2 0.166667 0.333333 0.077749
45 2 0.166347 0.321387 0.135085
46 2 0.837113 0.169188 0.156914
54 2 1 0.5 0
55 2 0.5 0.5 0.0583118
56 2 0.666667 0.833333 0.077749
57 2 0.669532 0.83403 0.13532
58 2 0.330446 0.658509 0.154473
23 2 0.333924 0.173131 0.212877
24 2 1.00089 0.486759 0.234516
25 2 0.489962 0.0037705 0.291942
26 2 0.660847 0.339332 0.312023
35 2 0.846478 0.664684 0.213909
36 2 0.492118 -0.00232273 0.234341
37 2 0.995441 0.48945 0.292463
38 2 0.153357 0.828052 0.313029
47 2 0.822681 0.152839 0.214198
48 2 0.504101 0.508147 0.231867
49 2 -0.00981614 0.99868 0.293825
50 2 0.165832 0.329473 0.313151
59 2 0.329877 0.664841 0.211852
60 2 0.00855304 1.00798 0.235937
61 2 0.499518 0.507213 0.289526
62 2 0.653078 0.83361 0.312828
1 1 0.00113047 0.993506 0.505319
2 1 0.214276 0.105545 0.498921
3 1 -0.00132235 0.331042 0.490584
4 1 0.216953 0.442117 0.492111
5 1 0.989777 0.663248 0.493883
6 1 0.21659 0.78103 0.495188
7 1 0.33286 0.00521073 0.493951
8 1 0.553197 0.0951012 0.503336
9 1 0.298044 0.319129 0.49304
10 1 0.333277 0.664217 0.495285
11 1 0.550735 0.777548 0.490662
12 1 0.661904 0.992653 0.490456
13 1 0.891841 0.104263 0.496056
15 1 0.89297 0.441226 0.503062
16 1 0.671145 0.690702 0.493828
17 1 0.887116 0.78223 0.49799
27 2 0.679145 0.347096 0.370696
28 2 0.339156 0.166091 0.394191
29 2 0.377372 0.237663 0.451434
39 2 0.17849 0.843277 0.370596
40 2 0.847873 0.675419 0.392703
41 2 0.770095 0.626169 0.450602
51 2 0.169852 0.330801 0.371899
52 2 0.828065 0.17088 0.390166
53 2 0.850545 0.156895 0.449874
63 2 0.672491 0.830812 0.371033
64 2 0.334029 0.663178 0.389458
65 2 0.317203 0.69237 0.445096
14 1 0.693559 0.295869 0.512026
66 3 0.306211 0.271753 0.557259
67 3 0.2854 0.778548 0.564174
68 3 0.70368 0.27898 0.566602
69 3 0.744839 0.657228 0.558886
ITEM: TIMESTEP
175
ITEM: NUMBER OF ATOMS
69
ITEM: BOX BOUNDS xy xz yz pp pp pp
-3.7004999999999999e+00 7.4009999999999998e+00 -3.7004999999999999e+00
0.0000000000000000e+00 6.4094540134086300e+00 0.0000000000000000e+00
0.0000000000000000e+00 4.0329638543820927e+01 0.0000000000000000e+00
ITEM: ATOMS id type xs ys zs
18 2 0 0 0
19 2 0.5 0 0.0583118
20 2 0.666667 0.333333 0.077749
21 2 0.66876 0.334198 0.135663
22 2 0.344191 0.161866 0.15592
30 2 0.5 0.5 0
31 2 1 0.5 0.0583118
32 2 0.166667 0.833333 0.077749
33 2 0.163294 0.821974 0.135437
34 2 0.839954 0.679474 0.15639
42 2 0.5 0 0
43 2 0 0 0.0583118
44 2 0.166667 0.333333 0.077749
45 2 0.166671 0.322951 0.135219
46 2 0.838322 0.167572 0.157278
54 2 1 0.5 0
55 2 0.5 0.5 0.0583118
56 2 0.666667 0.833333 0.077749
57 2 0.671203 0.831198 0.135352
58 2 0.329246 0.658751 0.154623
23 2 0.333462 0.172906 0.212937
24 2 1.00216 0.486658 0.23516
25 2 0.490561 0.00442711 0.292054
26 2 0.663285 0.341205 0.31174
35 2 0.845473 0.662183 0.213712
36 2 0.493236 -0.00300208 0.234505
37 2 0.991883 0.486171 0.292713
38 2 0.151182 0.82804 0.312887
47 2 0.821512 0.153182 0.214271
48 2 0.501416 0.50667 0.232495
49 2 -0.00972402 1.00009 0.294316
50 2 0.161713 0.327174 0.312765
59 2 0.330026 0.664414 0.212098
60 2 0.0104424 1.01062 0.23612
61 2 0.501214 0.509511 0.289917
62 2 0.6527 0.833246 0.312691
1 1 -0.000232441 0.995098 0.503766
2 1 0.211198 0.107053 0.498413
3 1 0.000592487 0.331656 0.49236
4 1 0.21686 0.443469 0.492922
5 1 0.98632 0.662029 0.494975
6 1 0.213799 0.783459 0.494152
7 1 0.328778 0.00714834 0.495938
8 1 0.553209 0.091254 0.504706
9 1 0.294656 0.313137 0.49371
10 1 0.33185 0.670011 0.493469
11 1 0.551004 0.779446 0.490596
12 1 0.659713 0.988988 0.491261
13 1 0.888291 0.105201 0.496139
15 1 0.896917 0.443429 0.503918
16 1 0.678035 0.702033 0.495273
17 1 0.879557 0.77768 0.497731
27 2 0.684288 0.350294 0.370746
28 2 0.336737 0.164324 0.394595
29 2 0.393793 0.250953 0.451689
39 2 0.178359 0.84233 0.370715
40 2 0.846462 0.677053 0.393316
41 2 0.759337 0.608665 0.450623
51 2 0.169422 0.331612 0.371977
52 2 0.827494 0.172849 0.390244
53 2 0.850335 0.154712 0.450265
63 2 0.674435 0.829027 0.370888
64 2 0.337129 0.662233 0.38916
65 2 0.314043 0.696447 0.445237
14 1 0.699434 0.29512 0.512975
66 3 0.320357 0.277282 0.560546
67 3 0.290994 0.787612 0.566874
68 3 0.689754 0.27724 0.568717
69 3 0.743212 0.643595 0.562413
ITEM: TIMESTEP
200
ITEM: NUMBER OF ATOMS
69
ITEM: BOX BOUNDS xy xz yz pp pp pp
-3.7004999999999999e+00 7.4009999999999998e+00 -3.7004999999999999e+00
0.0000000000000000e+00 6.4094540134086300e+00 0.0000000000000000e+00
0.0000000000000000e+00 4.0329638543820927e+01 0.0000000000000000e+00
ITEM: ATOMS id type xs ys zs
18 2 0 0 0
19 2 0.5 0 0.0583118
20 2 0.666667 0.333333 0.077749
21 2 0.668348 0.333609 0.136438
22 2 0.342993 0.161287 0.156116
30 2 0.5 0.5 0
31 2 1 0.5 0.0583118
32 2 0.166667 0.833333 0.077749
33 2 0.164348 0.82232 0.135386
34 2 0.841143 0.680107 0.156318
42 2 0.5 0 0
43 2 0 0 0.0583118
44 2 0.166667 0.333333 0.077749
45 2 0.16757 0.324984 0.135411
46 2 0.838353 0.165258 0.157443
54 2 1 0.5 0
55 2 0.5 0.5 0.0583118
56 2 0.666667 0.833333 0.077749
57 2 0.671631 0.829683 0.13541
58 2 0.329348 0.658866 0.154893
23 2 0.333811 0.17222 0.21315
24 2 1.0025 0.487226 0.235662
25 2 0.490392 0.00445704 0.292203
26 2 0.664756 0.341981 0.311676
35 2 0.843759 0.661546 0.213726
36 2 0.493634 -0.00371825 0.234637
37 2 0.989533 0.485507 0.292864
38 2 0.150892 0.82814 0.312801
47 2 0.82213 0.154562 0.214393
48 2 0.500465 0.505289 0.233142
49 2 -0.00969536 1.00043 0.294446
50 2 0.159899 0.32672 0.312657
59 2 0.330463 0.664444 0.212492
60 2 0.00982332 1.01002 0.236126
61 2 0.501313 0.510163 0.290443
62 2 0.653082 0.833306 0.312604
1 1 -0.00348604 0.992362 0.502185
2 1 0.215839 0.113341 0.497121
3 1 0.00104256 0.334389 0.494141
4 1 0.217457 0.444472 0.493744
5 1 0.987737 0.667587 0.496549
6 1 0.209911 0.783934 0.49248
7 1 0.327362 0.00778673 0.497859
8 1 0.551378 0.0942117 0.505785
9 1 0.296375 0.311624 0.49431
10 1 0.326398 0.670132 0.492075
11 1 0.548939 0.778387 0.490298
12 1 0.659514 0.99649 0.492251
13 1 0.883873 0.10563 0.496889
15 1 0.899739 0.44314 0.505258
16 1 0.676073 0.703366 0.496785
17 1 0.881734 0.776851 0.497665
27 2 0.685205 0.351216 0.370484
28 2 0.334636 0.163369 0.394826
29 2 0.411378 0.262901 0.452326
39 2 0.17762 0.840533 0.370883
40 2 0.84681 0.679888 0.39381
41 2 0.747237 0.58778 0.450655
51 2 0.168496 0.331293 0.371924
52 2 0.828272 0.173396 0.390497
53 2 0.849662 0.153425 0.450215
63 2 0.675205 0.828953 0.370655
64 2 0.340852 0.662478 0.388959
65 2 0.311275 0.700926 0.445847
14 1 0.698478 0.291458 0.51371
66 3 0.330999 0.281227 0.56433
67 3 0.296742 0.799047 0.5697
68 3 0.675683 0.269121 0.570191
69 3 0.744208 0.636478 0.56637
ITEM: TIMESTEP
225
ITEM: NUMBER OF ATOMS
69
ITEM: BOX BOUNDS xy xz yz pp pp pp
-3.7004999999999999e+00 7.4009999999999998e+00 -3.7004999999999999e+00
0.0000000000000000e+00 6.4094540134086300e+00 0.0000000000000000e+00
0.0000000000000000e+00 4.0329638543820927e+01 0.0000000000000000e+00
ITEM: ATOMS id type xs ys zs
18 2 0 0 0
19 2 0.5 0 0.0583118
20 2 0.666667 0.333333 0.077749
21 2 0.669647 0.333879 0.137047
22 2 0.340156 0.160657 0.156292
30 2 0.5 0.5 0
31 2 1 0.5 0.0583118
32 2 0.166667 0.833333 0.077749
33 2 0.166819 0.824833 0.135282
34 2 0.840923 0.677012 0.156391
42 2 0.5 0 0
43 2 0 0 0.0583118
44 2 0.166667 0.333333 0.077749
45 2 0.168797 0.327035 0.135637
46 2 0.837367 0.16267 0.157408
54 2 1 0.5 0
55 2 0.5 0.5 0.0583118
56 2 0.666667 0.833333 0.077749
57 2 0.670681 0.829539 0.135479
58 2 0.330803 0.658963 0.155282
23 2 0.334757 0.171076 0.213505
24 2 0.00188765 0.488549 0.235924
25 2 0.489441 0.003845 0.292369
26 2 0.664571 0.341351 0.311859
35 2 0.841589 0.662652 0.213952
36 2 0.493362 0.995644 0.234736
37 2 0.98905 0.487747 0.292909
38 2 0.152461 0.828409 0.312836
47 2 0.824407 0.156715 0.21456
48 2 0.501194 0.504146 0.233741
49 2 0.990353 -0.000347602 0.294197
50 2 0.160554 0.328162 0.312879
59 2 0.331082 0.664735 0.212993
60 2 0.00688768 0.00639413 0.235964
61 2 0.499638 0.508911 0.29105
62 2 0.65414 0.833921 0.312597
1 1 0.996784 0.992033 0.500304
2 1 0.213707 0.109389 0.495918
3 1 0.996998 0.33225 0.495348
4 1 0.214106 0.442013 0.494997
5 1 0.986174 0.668384 0.497785
6 1 0.208028 0.786387 0.490913
7 1 0.324745 0.00528433 0.499669
8 1 0.544771 0.097854 0.506821
9 1 0.304462 0.320438 0.494649
10 1 0.323528 0.666476 0.491862
11 1 0.553042 0.778274 0.489905
12 1 0.661562 0.00265519 0.492526
13 1 0.88519 0.107332 0.497864
15 1 0.89729 0.443462 0.506588
16 1 0.673898 0.700239 0.496635
17 1 0.878173 0.777835 0.497028
27 2 0.682358 0.350351 0.370112
28 2 0.333415 0.164035 0.394921
29 2 0.430177 0.273662 0.452912
39 2 0.176434 0.838271 0.371021
40 2 0.847825 0.682854 0.39444
41 2 0.736978 0.568127 0.451866
51 2 0.166984 0.329731 0.371776
52 2 0.830186 0.172564 0.391018
53 2 0.84809 0.15364 0.45045
63 2 0.675394 0.83086 0.370497
64 2 0.344532 0.663666 0.3889
65 2 0.30916 0.706165 0.446117
14 1 0.700172 0.296594 0.514527
66 3 0.336694 0.282658 0.568462
67 3 0.30297 0.813716 0.572525
68 3 0.66193 0.254031 0.570952
69 3 0.748811 0.636633 0.570569
ITEM: TIMESTEP
250
ITEM: NUMBER OF ATOMS
69
ITEM: BOX BOUNDS xy xz yz pp pp pp
-3.7004999999999999e+00 7.4009999999999998e+00 -3.7004999999999999e+00
0.0000000000000000e+00 6.4094540134086300e+00 0.0000000000000000e+00
0.0000000000000000e+00 4.0329638543820927e+01 0.0000000000000000e+00
ITEM: ATOMS id type xs ys zs
18 2 0 0 0
19 2 0.5 0 0.0583118
20 2 0.666667 0.333333 0.077749
21 2 0.671963 0.334476 0.137404
22 2 0.336521 0.16033 0.156457
30 2 0.5 0.5 0
31 2 1 0.5 0.0583118
32 2 0.166667 0.833333 0.077749
33 2 0.170043 0.828642 0.135186
34 2 0.839713 0.671304 0.15658
42 2 0.5 0 0
43 2 0 0 0.0583118
44 2 0.166667 0.333333 0.077749
45 2 0.169925 0.328709 0.135864
46 2 0.835859 0.160384 0.157233
54 2 1 0.5 0
55 2 0.5 0.5 0.0583118
56 2 0.666667 0.833333 0.077749
57 2 0.668798 0.830257 0.13556
58 2 0.333245 0.659337 0.155775
23 2 0.335755 0.169485 0.213952
24 2 0.000583161 0.490651 0.235916
25 2 0.488155 0.00276551 0.29253
26 2 0.66274 0.339415 0.312252
35 2 0.839255 0.664891 0.21433
36 2 0.492898 0.995265 0.234814
37 2 0.990477 0.492271 0.292886
38 2 0.155321 0.828899 0.313018
47 2 0.827799 0.159258 0.214752
48 2 0.502942 0.503204 0.234265
49 2 0.990644 -0.00175089 0.293653
50 2 0.162801 0.330785 0.313352
59 2 0.33171 0.664932 0.213555
60 2 0.00246767 0.000810536 0.235669
61 2 0.496612 0.506086 0.291697
62 2 0.655787 0.835046 0.312677
1 1 1.00064 0.995409 0.499029
2 1 0.216239 0.113684 0.494651
3 1 0.994055 0.331146 0.496257
4 1 0.211534 0.430805 0.49669
5 1 0.983277 0.661942 0.499057
6 1 0.207454 0.786166 0.489787
7 1 0.326215 0.00415201 0.500973
8 1 0.543721 0.101154 0.507748
9 1 0.302466 0.32475 0.494257
10 1 0.325076 0.660735 0.492437
11 1 0.551561 0.782168 0.489042
12 1 0.658207 0.00457259 0.49275
13 1 0.890152 0.108569 0.498593
15 1 0.897733 0.446195 0.5082
16 1 0.671291 0.695093 0.495613
17 1 0.876385 0.779535 0.496457
27 2 0.676743 0.347919 0.369713
28 2 0.333449 0.166328 0.394985
29 2 0.443361 0.279521 0.453461
39 2 0.175334 0.835776 0.371234
40 2 0.848445 0.684778 0.395085
41 2 0.731068 0.553343 0.453176
51 2 0.16549 0.327759 0.371661
52 2 0.832489 0.170755 0.391691
53 2 0.844863 0.156426 0.450956
63 2 0.6754 0.834526 0.370463
64 2 0.347202 0.665274 0.389133
65 2 0.309243 0.714487 0.446242
14 1 0.695375 0.298534 0.515189
66 3 0.336702 0.281336 0.572677
67 3 0.30934 0.83123 0.575252
68 3 0.649461 0.233286 0.570858
69 3 0.757288 0.643386 0.574854
ITEM: TIMESTEP
275
ITEM: NUMBER OF ATOMS
69
ITEM: BOX BOUNDS xy xz yz pp pp pp
-3.7004999999999999e+00 7.4009999999999998e+00 -3.7004999999999999e+00
0.0000000000000000e+00 6.4094540134086300e+00 0.0000000000000000e+00
0.0000000000000000e+00 4.0329638543820927e+01 0.0000000000000000e+00
ITEM: ATOMS id type xs ys zs
18 2 0 0 0
19 2 0.5 0 0.0583118
20 2 0.666667 0.333333 0.077749
21 2 0.674151 0.334626 0.137464
22 2 0.333255 0.160694 0.156627
30 2 0.5 0.5 0
31 2 1 0.5 0.0583118
32 2 0.166667 0.833333 0.077749
33 2 0.173081 0.832482 0.135171
34 2 0.83819 0.664914 0.156825
42 2 0.5 0 0
43 2 0 0 0.0583118
44 2 0.166667 0.333333 0.077749
45 2 0.170506 0.329758 0.136049
46 2 0.834471 0.158979 0.157016
54 2 1 0.5 0
55 2 0.5 0.5 0.0583118
56 2 0.666667 0.833333 0.077749
57 2 0.66677 0.831042 0.135659
58 2 0.335991 0.660239 0.156331
23 2 0.336181 0.167542 0.214412
24 2 -0.000991432 0.493409 0.235689
25 2 0.487278 0.00153554 0.292663
26 2 0.659988 0.336696 0.312743
35 2 0.836976 0.667254 0.21474
36 2 0.492905 0.995318 0.234889
37 2 0.993161 0.497689 0.292858
38 2 0.15854 0.82962 0.313336
47 2 0.831456 0.161736 0.214932
48 2 0.504685 0.50227 0.234716
49 2 0.991386 -0.00301775 0.292977
50 2 0.165153 0.333455 0.313916
59 2 0.332184 0.664698 0.214123
60 2 -0.00213024 -0.00501443 0.235311
61 2 0.493185 0.502559 0.292345
62 2 0.657899 0.836435 0.31283
1 1 1.00452 0.996607 0.498759
2 1 0.221663 0.110329 0.493777
3 1 1.00057 0.335388 0.49732
4 1 0.204588 0.429094 0.499285
5 1 0.985168 0.660899 0.500099
6 1 0.20531 0.781716 0.490137
7 1 0.323928 0.00266235 0.501008
8 1 0.546759 0.10046 0.508638
9 1 0.300666 0.325812 0.493628
10 1 0.323257 0.645561 0.493292
11 1 0.54597 0.780807 0.488035
12 1 0.654926 0.00261462 0.493042
13 1 0.889664 0.107403 0.498715
15 1 0.898295 0.445717 0.510296
16 1 0.670258 0.698851 0.493851
17 1 0.877424 0.775801 0.496579
27 2 0.670012 0.344546 0.369425
28 2 0.334723 0.169689 0.394999
29 2 0.446559 0.276447 0.453649
39 2 0.17453 0.833579 0.37153
40 2 0.847732 0.684735 0.395565
41 2 0.732791 0.547767 0.453912
51 2 0.164514 0.326291 0.371654
52 2 0.834404 0.168625 0.392359
53 2 0.839957 0.161624 0.451658
63 2 0.675718 0.839221 0.370567
64 2 0.348338 0.666622 0.389634
65 2 0.312773 0.72933 0.446115
14 1 0.690942 0.300898 0.516073
66 3 0.3316 0.279395 0.576754
67 3 0.313804 0.846077 0.577845
68 3 0.641947 0.21287 0.569802
69 3 0.767593 0.654249 0.578993
ITEM: TIMESTEP
300
ITEM: NUMBER OF ATOMS
69
ITEM: BOX BOUNDS xy xz yz pp pp pp
-3.7004999999999999e+00 7.4009999999999998e+00 -3.7004999999999999e+00
0.0000000000000000e+00 6.4094540134086300e+00 0.0000000000000000e+00
0.0000000000000000e+00 4.0329638543820927e+01 0.0000000000000000e+00
ITEM: ATOMS id type xs ys zs
18 2 0 0 0
19 2 0.5 0 0.0583118
20 2 0.666667 0.333333 0.077749
21 2 0.675132 0.333686 0.13723
22 2 0.33134 0.161944 0.156819
30 2 0.5 0.5 0
31 2 1 0.5 0.0583118
32 2 0.166667 0.833333 0.077749
33 2 0.175149 0.835249 0.135281
34 2 0.837021 0.659752 0.157058
42 2 0.5 0 0
43 2 0 0 0.0583118
44 2 0.166667 0.333333 0.077749
45 2 0.170309 0.330242 0.136162
46 2 0.83372 0.158766 0.156848
54 2 1 0.5 0
55 2 0.5 0.5 0.0583118
56 2 0.666667 0.833333 0.077749
57 2 0.665346 0.831209 0.13577
58 2 0.338298 0.66168 0.156897
23 2 0.335639 0.165444 0.214799
24 2 -0.00237022 0.49653 0.235353
25 2 0.487473 0.000452351 0.292752
26 2 0.657358 0.333931 0.313195
35 2 0.834766 0.668597 0.215034
36 2 0.493899 0.995843 0.234973
37 2 0.996079 0.50247 0.292878
38 2 0.161263 0.830571 0.313757
47 2 0.834543 0.163814 0.215048
48 2 0.505392 0.501025 0.235129
49 2 0.992665 -0.00354834 0.292353
50 2 0.166247 0.335194 0.314415
59 2 0.332441 0.66392 0.214647