ITEM: TIMESTEP
0
ITEM: NUMBER OF ATOMS
69
ITEM: BOX BOUNDS xy xz yz pp pp ff
-3.7004999999999999e+00 7.4009999999999998e+00 -3.7004999999999999e+00
0.0000000000000000e+00 6.4094540134086300e+00 0.0000000000000000e+00
0.0000000000000000e+00 4.0329638543820927e+01 0.0000000000000000e+00
ITEM: ATOMS id type xu yu zu
1 1 1.31703 -0.781806 20.2153
2 1 2.48342 -0.00965797 20.1057
3 1 0.135073 1.37155 20.4179
4 1 1.29573 2.13141 20.2002
5 1 -1.11164 3.52763 20.3618
6 1 0.107432 4.239 20.321
7 1 3.73181 -0.722757 20.3515
8 1 5.03339 -0.0755379 20.3205
9 1 2.35279 1.32416 20.0189
10 1 1.35529 3.54615 20.2492
11 1 2.58429 4.28892 20.3133
12 1 6.24012 -0.788133 20.5223
13 1 7.50936 -0.0717179 20.4123
14 1 5.2842 1.3082 20.1998
15 1 6.32946 2.15279 20.3963
16 1 3.75511 3.68545 20.1556
17 1 5.01876 4.17334 20.2217
18 2 0 0 0
19 2 3.7005 0 2.35169
20 2 3.7005 2.13648 3.13559
21 2 3.67279 2.13388 5.52307
22 2 1.91143 1.03418 6.44933
23 2 1.77444 0.928966 8.71208
24 2 5.4279 3.18959 9.60899
25 2 3.67665 -0.122373 11.8499
26 2 3.79075 2.04818 12.812
27 2 3.8075 2.3837 15.0991
28 2 1.93141 1.01806 16.171
29 2 3.25257 0.929621 18.2288
30 2 1.85025 3.20473 0
31 2 5.55075 3.20473 2.35169
32 2 5.55075 5.34121 3.13559
33 2 5.4878 5.42937 5.56018
34 2 3.70585 4.23647 6.36038
35 2 3.55516 4.14524 8.64767
36 2 7.33016 6.32258 9.63655
37 2 5.61492 3.19627 12.0126
38 2 5.51946 5.45468 12.8433
39 2 5.58084 5.53005 15.1381
40 2 3.87015 4.5404 16.1922
41 2 4.46702 3.2767 18.3126
42 2 3.7005 0 0
43 2 7.401 0 2.35169
44 2 7.401 2.13648 3.13559
45 2 7.46796 2.16214 5.47249
46 2 5.68681 1.14349 6.34675
47 2 5.5388 1.05866 8.73733
48 2 9.18975 3.01312 9.57068
49 2 7.40892 -0.0727712 11.8794
50 2 7.57166 2.07571 12.8343
51 2 7.46236 2.21944 15.22
52 2 5.60244 1.12001 15.7594
53 2 5.53743 1.21056 17.9852
54 2 5.55075 3.20473 0
55 2 9.25125 3.20473 2.35169
56 2 9.25125 5.34121 3.13559
57 2 9.24357 5.28743 5.5637
58 2 7.38433 4.24112 6.58496
59 2 7.43548 4.12051 8.84847
60 2 11.0744 6.31945 9.47738
61 2 9.36104 2.99861 11.8986
62 2 9.27862 5.35195 12.718
63 2 9.34663 5.21684 15.0853
64 2 7.42739 4.37202 15.9514
65 2 9.07204 5.40116 17.3379
66 3 20.8289 32.2981 23.4789
67 3 17.0535 42.0024 23.2468
68 3 29.1281 38.3407 23.5898
69 3 16.107 35.5467 23.5032
ITEM: TIMESTEP
100
ITEM: NUMBER OF ATOMS
69
ITEM: BOX BOUNDS xy xz yz pp pp ff
-3.7004999999999999e+00 7.4009999999999998e+00 -3.7004999999999999e+00
0.0000000000000000e+00 6.4094540134086300e+00 0.0000000000000000e+00
0.0000000000000000e+00 4.0329638543820927e+01 0.0000000000000000e+00
ITEM: ATOMS id type xu yu zu
1 1 1.3664 -0.729357 20.3398
2 1 2.58451 -0.0268761 20.161
3 1 0.181038 1.43356 20.5196
4 1 1.36828 2.05641 20.4204
5 1 -1.14097 3.60281 20.3412
6 1 0.12458 4.18356 20.3397
7 1 3.76983 -0.800643 20.2521
8 1 5.10289 -0.165642 20.3536
9 1 2.45133 1.29513 20.1547
10 1 1.40246 3.4824 20.3606
11 1 2.63411 4.20741 20.2639
12 1 6.34808 -0.811748 20.3503
13 1 7.55264 0.000986231 20.438
14 1 5.31818 1.21204 20.1402
15 1 6.30529 2.18347 20.3764
16 1 3.8415 3.7596 19.9625
17 1 5.11347 4.32295 20.0094
18 2 0 0 0
19 2 3.7005 0 2.35169
20 2 3.7005 2.13648 3.13559
21 2 3.77994 1.94839 5.47126
22 2 1.78433 1.03802 6.2852
23 2 1.77139 0.903569 8.65448
24 2 5.52412 3.10294 9.67024
25 2 3.8501 -0.187372 12.0135
26 2 3.90179 1.9828 12.7254
27 2 3.65185 2.22022 15.1197
28 2 1.99989 1.23273 16.1975
29 2 3.16033 1.01081 18.3322
30 2 1.85025 3.20473 0
31 2 5.55075 3.20473 2.35169
32 2 5.55075 5.34121 3.13559
33 2 5.58062 5.23232 5.51718
34 2 3.69535 4.16671 6.284
35 2 3.70319 4.16085 8.71878
36 2 7.46224 6.34605 9.63695
37 2 5.58408 3.2367 11.9167
38 2 5.59762 5.28779 12.7084
39 2 5.51278 5.50168 15.1255
40 2 3.83193 4.25887 16.2182
41 2 4.45689 3.1483 18.1929
42 2 3.7005 0 0
43 2 7.401 0 2.35169
44 2 7.401 2.13648 3.13559
45 2 7.49602 2.21999 5.58443
46 2 5.6113 1.12236 6.39502
47 2 5.53646 1.02164 8.72516
48 2 9.25343 2.9932 9.62666
49 2 7.48465 -0.011487 11.88
50 2 7.39476 2.09754 12.7176
51 2 7.57321 2.28926 15.1093
52 2 5.64986 1.12079 15.603
53 2 5.46911 1.05679 17.9697
54 2 5.55075 3.20473 0
55 2 9.25125 3.20473 2.35169
56 2 9.25125 5.34121 3.13559
57 2 9.28684 5.32859 5.47516
58 2 7.39725 4.35221 6.48343
59 2 7.35639 4.23143 8.93178
60 2 11.035 6.25157 9.56963
61 2 9.42186 3.2158 12.0425
62 2 9.35484 5.12063 12.8402
63 2 9.3623 5.35602 15.0956
64 2 7.28745 4.48414 15.9626
65 2 9.02359 5.31596 17.4321
66 3 20.8467 32.2817 23.3255
67 3 16.9946 42.0354 23.3371
68 3 28.9291 38.5619 23.745
69 3 16.2733 35.7486 23.7144
ITEM: TIMESTEP
200
ITEM: NUMBER OF ATOMS
69
ITEM: BOX BOUNDS xy xz yz pp pp ff
-3.7004999999999999e+00 7.4009999999999998e+00 -3.7004999999999999e+00
0.0000000000000000e+00 6.4094540134086300e+00 0.0000000000000000e+00
0.0000000000000000e+00 4.0329638543820927e+01 0.0000000000000000e+00
ITEM: ATOMS id type xu yu zu
1 1 1.43511 -0.749177 20.1884
2 1 2.68509 -0.0741689 20.2317
3 1 0.305268 1.36472 20.4663
4 1 1.48093 2.05426 20.5013
5 1 -0.958549 3.43503 20.1384
6 1 0.187991 4.1837 20.3951
7 1 3.95376 -0.71434 20.4743
8 1 5.17497 -0.0662701 20.3603
9 1 2.52778 1.23617 20.2505
10 1 1.43189 3.51156 20.4178
11 1 2.65917 4.19248 20.2038
12 1 6.33272 -0.785196 20.4463
13 1 7.6423 -0.0754045 20.4515
14 1 5.37324 1.30582 20.1396
15 1 6.47881 2.06338 20.2837
16 1 3.80396 3.70092 19.9225
17 1 5.13588 4.23279 19.912
18 2 0 0 0
19 2 3.7005 0 2.35169
20 2 3.7005 2.13648 3.13559
21 2 3.70969 2.02158 5.44331
22 2 1.85557 0.919189 6.25586
23 2 1.93246 0.91659 8.69463
24 2 5.66656 3.08836 9.49949
25 2 3.94135 -0.0941639 12.0584
26 2 3.70367 2.05271 12.8104
27 2 3.68591 2.04397 15.0281
28 2 1.86939 1.30336 16.2257
29 2 3.16879 1.00664 18.308
30 2 1.85025 3.20473 0
31 2 5.55075 3.20473 2.35169
32 2 5.55075 5.34121 3.13559
33 2 5.55518 5.1436 5.40434
34 2 3.69797 4.07196 6.35705
35 2 3.76359 4.10532 8.71636
36 2 7.4369 6.38231 9.5741
37 2 5.61673 3.06398 11.8608
38 2 5.70283 5.26309 12.8214
39 2 5.40756 5.50581 15.1838
40 2 3.6569 4.03379 16.2295
41 2 4.42361 3.08107 18.2801
42 2 3.7005 0 0
43 2 7.401 0 2.35169
44 2 7.401 2.13648 3.13559
45 2 7.3279 2.25753 5.50008
46 2 5.58256 0.904366 6.42714
47 2 5.59389 0.911761 8.71622
48 2 9.33268 3.1953 9.63601
49 2 7.44742 -0.0381805 11.9286
50 2 7.50332 2.18473 12.7474
51 2 7.65849 2.31204 15.0623
52 2 5.68062 1.21378 15.7987
53 2 5.38903 1.08814 17.9639
54 2 5.55075 3.20473 0
55 2 9.25125 3.20473 2.35169
56 2 9.25125 5.34121 3.13559
57 2 9.32291 5.39403 5.47595
58 2 7.5497 4.3488 6.36142
59 2 7.44179 4.25561 8.7048
60 2 11.052 6.26471 9.61771
61 2 9.30885 2.93569 11.8672
62 2 9.56587 5.29349 12.9183
63 2 9.34438 5.40511 15.2365
64 2 7.32958 4.36612 15.9967
65 2 8.85541 5.26195 17.4276
66 3 20.7772 32.3587 23.3151
67 3 17.0272 42.1266 23.5888
68 3 28.8335 38.6179 23.8079
69 3 16.3681 36.0249 23.7864
ITEM: TIMESTEP
300
ITEM: NUMBER OF ATOMS
69
ITEM: BOX BOUNDS xy xz yz pp pp ff
-3.7004999999999999e+00 7.4009999999999998e+00 -3.7004999999999999e+00
0.0000000000000000e+00 6.4094540134086300e+00 0.0000000000000000e+00
0.0000000000000000e+00 4.0329638543820927e+01 0.0000000000000000e+00
ITEM: ATOMS id type xu yu zu
1 1 1.55419 -0.880371 20.1415
2 1 2.70465 -0.110309 20.1985
3 1 0.349728 1.3099 20.3462
4 1 1.49954 2.08396 20.2034
5 1 -0.944156 3.52754 20.2403
6 1 0.355978 4.2048 20.3129
7 1 3.97958 -0.749094 20.3495
8 1 5.18852 -0.124307 20.5371
9 1 2.58971 1.24161 20.2613
10 1 1.5817 3.49423 20.3264
11 1 2.80715 4.22579 20.4488
12 1 6.45713 -0.781181 20.4723
13 1 7.77335 -0.110567 20.2455
14 1 5.55609 1.22718 20.199
15 1 6.62339 2.04713 20.3746
16 1 3.91744 3.62834 20.1843
17 1 5.21568 4.11475 19.9418
18 2 0 0 0
19 2 3.7005 0 2.35169
20 2 3.7005 2.13648 3.13559
21 2 3.6031 2.02951 5.54396
22 2 1.80461 0.92616 6.38348
23 2 1.88055 1.10629 8.72712
24 2 5.74451 3.0932 9.37665
25 2 3.86419 -0.055474 11.9137
26 2 3.6811 2.08802 12.7106
27 2 3.77051 2.02737 15.0725
28 2 1.7854 0.992937 16.2818
29 2 3.14776 1.01306 18.4332
30 2 1.85025 3.20473 0
31 2 5.55075 3.20473 2.35169
32 2 5.55075 5.34121 3.13559
33 2 5.52915 5.25507 5.51557
34 2 3.75223 4.16675 6.44606
35 2 3.87876 4.16744 8.71789
36 2 7.4196 6.26896 9.68995
37 2 5.60223 3.10003 11.8795
38 2 5.70151 5.28618 12.9266
39 2 5.32594 5.34845 15.4252
40 2 3.55905 4.12817 16.2694
41 2 4.32225 3.16759 18.3233
42 2 3.7005 0 0
43 2 7.401 0 2.35169
44 2 7.401 2.13648 3.13559
45 2 7.36335 1.94725 5.42433
46 2 5.58435 1.0659 6.35081
47 2 5.69932 0.934665 8.74022
48 2 9.31627 3.16269 9.37684
49 2 7.73077 -0.0594228 12.0239
50 2 7.52732 2.01988 12.8181
51 2 7.47632 2.24681 15.1564
52 2 5.72284 1.24692 15.921
53 2 5.39622 1.06433 18.1332
54 2 5.55075 3.20473 0
55 2 9.25125 3.20473 2.35169
56 2 9.25125 5.34121 3.13559
57 2 9.4441 5.15422 5.45781
58 2 7.49636 4.15884 6.2496
59 2 7.62244 4.21364 8.50681
60 2 11.3816 6.27963 9.54446
61 2 9.30138 3.1262 11.7306
62 2 9.41883 5.24031 12.8502
63 2 9.37315 5.34936 15.2694
64 2 7.26939 4.29752 15.9344
65 2 8.82698 5.18 17.4936
66 3 20.6644 32.6682 23.4767
67 3 17.1635 42.3015 23.9082
68 3 28.8314 38.5165 23.7329
69 3 16.3393 36.2171 23.6704
ITEM: TIMESTEP
400
ITEM: NUMBER OF ATOMS
69
ITEM: BOX BOUNDS xy xz yz pp pp ff
-3.7004999999999999e+00 7.4009999999999998e+00 -3.7004999999999999e+00
0.0000000000000000e+00 6.4094540134086300e+00 0.0000000000000000e+00
0.0000000000000000e+00 4.0329638543820927e+01 0.0000000000000000e+00
ITEM: ATOMS id type xu yu zu
1 1 1.58574 -0.742664 20.0977
2 1 2.83101 -0.0929142 20.1455
3 1 0.315543 1.37817 20.1008
4 1 1.5562 2.00804 20.2536
5 1 -0.864853 3.50706 20.2476
6 1 0.370236 4.14275 20.288
7 1 4.08873 -0.867683 20.3713
8 1 5.31403 -0.236362 20.4611
9 1 2.74195 1.25239 20.2686
10 1 1.57923 3.37486 20.3067
11 1 2.84876 4.18599 20.4704
12 1 6.56891 -0.866773 20.4335
13 1 7.77607 0.0101103 20.2171
14 1 5.41969 1.21603 20.3457
15 1 6.51437 2.01504 20.3302
16 1 4.06833 3.67388 20.2767
17 1 5.29964 4.28905 20.1689
18 2 0 0 0
19 2 3.7005 0 2.35169
20 2 3.7005 2.13648 3.13559
21 2 3.72617 2.03519 5.52731
22 2 1.86437 0.994762 6.48107
23 2 2.0942 0.978347 8.68592
24 2 5.82549 3.0934 9.60166
25 2 3.74026 -0.105736 11.9648
26 2 3.83912 2.13253 12.5557
27 2 3.56496 2.11703 15.2444
28 2 1.89713 0.890759 16.2882
29 2 3.21961 0.983498 18.3287
30 2 1.85025 3.20473 0
31 2 5.55075 3.20473 2.35169
32 2 5.55075 5.34121 3.13559
33 2 5.71076 5.29906 5.55042
34 2 3.88631 4.18653 6.35749
35 2 3.9865 4.24847 8.7387
36 2 7.58677 6.2918 9.48946
37 2 5.71616 3.20375 11.8985
38 2 5.77279 5.15661 13.0866
39 2 5.33039 5.15381 15.4305
40 2 3.59146 4.16828 16.5238
41 2 4.39194 2.98858 18.5022
42 2 3.7005 0 0
43 2 7.401 0 2.35169
44 2 7.401 2.13648 3.13559
45 2 7.48039 1.88461 5.44704
46 2 5.45012 0.912024 6.34269
47 2 5.71585 0.885015 8.75944
48 2 9.4716 3.21213 9.42671
49 2 7.66768 -0.166571 11.9694
50 2 7.44258 2.02739 12.8042
51 2 7.48237 2.01735 15.264
52 2 5.52477 0.94117 15.9262
53 2 5.46495 1.03104 18.0752
54 2 5.55075 3.20473 0
55 2 9.25125 3.20473 2.35169
56 2 9.25125 5.34121 3.13559
57 2 9.22058 5.21833 5.48901
58 2 7.36411 4.01362 6.0815
59 2 7.49916 4.25021 8.55516
60 2 11.4003 6.34791 9.73036
61 2 9.29131 3.36547 11.8017
62 2 9.28403 5.30461 12.7202
63 2 9.25043 5.3476 15.0674
64 2 7.33132 4.31552 15.9328
65 2 8.89586 5.21375 17.5547
66 3 20.7362 33.1107 23.5982
67 3 17.1199 42.2744 24.1812
68 3 28.7359 38.7043 23.5889
69 3 16.4136 36.2648 23.4028
ITEM: TIMESTEP
500
ITEM: NUMBER OF ATOMS
69
ITEM: BOX BOUNDS xy xz yz pp pp ff
-3.7004999999999999e+00 7.4009999999999998e+00 -3.7004999999999999e+00
0.0000000000000000e+00 6.4094540134086300e+00 0.0000000000000000e+00
0.0000000000000000e+00 4.0329638543820927e+01 0.0000000000000000e+00
ITEM: ATOMS id type xu yu zu
1 1 1.59637 -0.934173 20.2196
2 1 2.76418 -0.184064 20.1786
3 1 0.457951 1.27909 20.3355
4 1 1.56733 2.08474 20.2122
5 1 -0.833018 3.467 20.3267
6 1 0.349289 4.2078 20.444
7 1 4.02781 -0.839198 20.4004
8 1 5.31737 -0.160995 20.438
9 1 2.62972 1.17121 20.1361
10 1 1.60944 3.47131 20.4069
11 1 2.88556 4.17165 20.3145
12 1 6.57308 -0.882763 20.3109
13 1 7.81207 -0.112854 20.1897
14 1 5.61547 1.19444 20.1023
15 1 6.70433 2.01212 20.2548
16 1 4.08282 3.57158 20.3522
17 1 5.29292 4.15257 20.1611
18 2 0 0 0
19 2 3.7005 0 2.35169
20 2 3.7005 2.13648 3.13559
21 2 3.84366 2.16115 5.42285
22 2 2.11224 1.02634 6.35397
23 2 2.1839 0.990259 8.85781
24 2 5.77017 3.06191 9.70963
25 2 3.66149 0.00257203 11.8833
26 2 3.74221 2.19704 12.7744
27 2 3.44946 2.20935 15.1684
28 2 1.92512 0.917212 16.2752
29 2 3.31527 0.897504 18.3738
30 2 1.85025 3.20473 0
31 2 5.55075 3.20473 2.35169
32 2 5.55075 5.34121 3.13559
33 2 5.61391 5.28369 5.36615
34 2 3.75333 4.2396 6.30274
35 2 4.02237 4.25547 8.74422
36 2 7.72172 6.3072 9.52947
37 2 5.81198 3.1562 12.0328
38 2 5.62742 5.19978 13.0463
39 2 5.47511 5.20052 15.3879
40 2 3.59928 4.03974 16.7104
41 2 4.49774 3.11592 18.4889
42 2 3.7005 0 0
43 2 7.401 0 2.35169
44 2 7.401 2.13648 3.13559
45 2 7.31835 1.91181 5.5279
46 2 5.64571 0.788199 6.47574
47 2 5.88728 0.992853 8.7219
48 2 9.53398 3.26521 9.61963
49 2 7.48126 -0.145878 12.0964
50 2 7.62192 2.05134 12.8465
51 2 7.45409 1.84358 15.3187
52 2 5.28135 0.895142 15.7256
53 2 5.53675 0.976556 17.9625
54 2 5.55075 3.20473 0
55 2 9.25125 3.20473 2.35169
56 2 9.25125 5.34121 3.13559
57 2 9.21492 5.20106 5.46478
58 2 7.49755 4.06405 6.40826
59 2 7.54676 4.07823 8.67095
60 2 11.2618 6.39133 9.69472
61 2 9.345 3.04673 11.8781
62 2 9.32374 5.54449 12.7524
63 2 9.18603 5.07015 15.0311
64 2 7.47638 4.01508 16.0181
65 2 9.07394 5.21324 17.307
66 3 20.806 33.1439 23.5648
67 3 17.2818 42.4364 24.321
68 3 28.8757 38.8483 23.3918
69 3 16.0768 36.6512 23.2287
ITEM: TIMESTEP
600
ITEM: NUMBER OF ATOMS
69
ITEM: BOX BOUNDS xy xz yz pp pp ff
-3.7004999999999999e+00 7.4009999999999998e+00 -3.7004999999999999e+00
0.0000000000000000e+00 6.4094540134086300e+00 0.0000000000000000e+00
0.0000000000000000e+00 4.0329638543820927e+01 0.0000000000000000e+00
ITEM: ATOMS id type xu yu zu
1 1 1.6316 -0.911886 20.1868
2 1 2.85166 -0.140739 20.1913
3 1 0.499294 1.22188 20.3571
4 1 1.65516 1.94934 20.3867
5 1 -0.863558 3.39203 20.3833
6 1 0.394054 4.10721 20.4131
7 1 4.06153 -0.838017 20.4207
8 1 5.33897 -0.247343 20.2061
9 1 2.7716 1.24712 20.2036
10 1 1.68649 3.38087 20.3981
11 1 2.83791 4.07245 20.3638
12 1 6.56724 -0.913963 20.3991
13 1 7.82445 -0.215478 20.3454
14 1 5.58716 1.10437 19.9808
15 1 6.66008 1.99411 20.3363
16 1 3.99917 3.50641 20.1012
17 1 5.23832 4.10477 20.11
18 2 0 0 0
19 2 3.7005 0 2.35169
20 2 3.7005 2.13648 3.13559
21 2 3.99481 2.11115 5.51588
22 2 2.04212 1.01371 6.30199
23 2 2.05561 1.08135 8.79336
24 2 5.69923 3.16307 9.67642
25 2 3.69041 0.09408 11.9516
26 2 3.83782 2.11058 13.0134
27 2 3.44456 2.28664 15.1705
28 2 1.95582 0.885607 16.3429
29 2 3.36673 0.818777 18.3123
30 2 1.85025 3.20473 0
31 2 5.55075 3.20473 2.35169
32 2 5.55075 5.34121 3.13559
33 2 5.60261 5.26082 5.5531
34 2 3.74628 4.30535 6.40777
35 2 3.94166 4.25073 8.71071
36 2 7.69887 6.23056 9.68462
37 2 5.68264 3.08395 12.2008
38 2 5.54603 5.31266 12.8626
39 2 5.63371 5.13308 15.5012
40 2 3.8371 4.15832 16.3694
41 2 4.67184 3.06676 18.3643
42 2 3.7005 0 0
43 2 7.401 0 2.35169
44 2 7.401 2.13648 3.13559
45 2 7.57201 2.06761 5.56323
46 2 5.72121 0.977322 6.41478
47 2 5.84985 1.08708 8.80142
48 2 9.5418 3.08729 9.64266
49 2 7.53028 0.0413541 12.026
50 2 7.62761 1.99493 13.065
51 2 7.31548 1.7459 15.2203
52 2 5.34275 0.892578 15.5308
53 2 5.56991 1.07646 17.8713
54 2 5.55075 3.20473 0
55 2 9.25125 3.20473 2.35169
56 2 9.25125 5.34121 3.13559
57 2 9.32911 5.10058 5.47092
58 2 7.44147 4.17033 6.55106
59 2 7.69041 4.08198 8.95401
60 2 11.4588 6.31557 9.62488
61 2 9.4309 3.21819 12.0069
62 2 9.11747 5.20672 12.786
63 2 9.30098 4.83462 15.058
64 2 7.26873 3.79301 16.1589
65 2 9.10314 5.18563 17.2221
66 3 21.0146 33.1112 23.4174
67 3 17.2821 42.6215 24.4783
68 3 28.8798 39.1561 23.2428
69 3 15.9242 36.9285 23.154
ITEM: TIMESTEP
700
ITEM: NUMBER OF ATOMS
69
ITEM: BOX BOUNDS xy xz yz pp pp ff
-3.7004999999999999e+00 7.4009999999999998e+00 -3.7004999999999999e+00
0.0000000000000000e+00 6.4094540134086300e+00 0.0000000000000000e+00
0.0000000000000000e+00 4.0329638543820927e+01 0.0000000000000000e+00
ITEM: ATOMS id type xu yu zu
1 1 1.6848 -0.93674 20.2817
2 1 2.92153 -0.290535 20.1463
3 1 0.365081 1.26214 20.4164
4 1 1.63632 1.83667 20.4173
5 1 -0.843131 3.33385 20.2426
6 1 0.435792 3.95949 20.4038
7 1 4.14442 -1.01088 20.2199
8 1 5.3994 -0.272532 20.3271
9 1 2.74324 1.06349 20.2389
10 1 1.72337 3.29346 20.4315
11 1 2.87689 4.00368 20.3281
12 1 6.59758 -0.954017 20.3584
13 1 7.82863 -0.22278 20.3915
14 1 5.53499 1.03418 20.092
15 1 6.52076 1.92067 20.3
16 1 4.21199 3.61756 20.1083
17 1 5.3793 4.13905 20.0794
18 2 0 0 0
19 2 3.7005 0 2.35169
20 2 3.7005 2.13648 3.13559
21 2 3.86634 2.07334 5.5956
22 2 2.03258 1.01653 6.42851
23 2 2.17072 0.876318 8.57052
24 2 5.72951 3.22926 9.81794
25 2 3.74495 -0.11851 12.1341
26 2 3.89134 2.03274 12.996
27 2 3.47775 2.19827 15.392
28 2 1.94916 0.844711 16.3993
29 2 3.32778 0.889417 18.3699
30 2 1.85025 3.20473 0
31 2 5.55075 3.20473 2.35169
32 2 5.55075 5.34121 3.13559
33 2 5.70223 5.30556 5.66081
34 2 3.92218 4.14212 6.47776
35 2 3.82333 4.19888 8.77902
36 2 7.56216 6.44278 9.67907
37 2 5.6684 3.16575 12.0887
38 2 5.64972 5.28343 12.9732
39 2 5.74101 5.2581 15.2158
40 2 3.89579 4.27539 16.2235
41 2 4.59234 3.10411 18.2026
42 2 3.7005 0 0
43 2 7.401 0 2.35169
44 2 7.401 2.13648 3.13559
45 2 7.74537 2.26527 5.47737
46 2 5.82328 1.01366 6.35108
47 2 5.72566 0.941047 8.86449
48 2 9.56243 3.04865 9.68327
49 2 7.35445 -0.0784261 11.8807
50 2 7.48399 2.15004 12.8907
51 2 7.52367 1.72355 15.2811
52 2 5.38792 0.652314 15.5615
53 2 5.62602 1.00953 17.7859
54 2 5.55075 3.20473 0
55 2 9.25125 3.20473 2.35169
56 2 9.25125 5.34121 3.13559
57 2 9.27491 5.33752 5.59957
58 2 7.49315 4.27696 6.53547
59 2 7.63354 4.25221 8.97828
60 2 11.3955 6.36575 9.62131
61 2 9.45092 3.10899 12.0089
62 2 9.27361 5.249 12.8062
63 2 9.31014 4.69895 15.129
64 2 7.33319 3.86579 16.3801
65 2 9.07193 5.15532 17.3724
66 3 21.1679 33.2282 23.3447
67 3 17.2065 42.76 24.4597
68 3 28.8783 39.3673 23.3543
69 3 15.9197 37.1368 23.257
ITEM: TIMESTEP
800
ITEM: NUMBER OF ATOMS
69
ITEM: BOX BOUNDS xy xz yz pp pp ff
-3.7004999999999999e+00 7.4009999999999998e+00 -3.7004999999999999e+00
0.0000000000000000e+00 6.4094540134086300e+00 0.0000000000000000e+00
0.0000000000000000e+00 4.0329638543820927e+01 0.0000000000000000e+00
ITEM: ATOMS id type xu yu zu
1 1 1.64448 -1.07775 20.2041
2 1 2.86321 -0.316881 20.2593
3 1 0.483566 1.1061 20.4096
4 1 1.69797 1.8886 20.3323
5 1 -0.753688 3.22539 20.2193
6 1 0.43937 4.02045 20.2737
7 1 4.14663 -0.950806 20.3696
8 1 5.39415 -0.309688 20.3078
9 1 2.74609 1.07189 20.2489
10 1 1.72835 3.33717 20.3226
11 1 2.89044 3.96946 20.3413
12 1 6.61254 -1.01338 20.3982
13 1 7.88824 -0.357025 20.3608
14 1 5.67358 1.06201 20.224
15 1 6.71118 1.83388 20.3178
16 1 4.14026 3.38534 20.1264
17 1 5.36135 3.91158 20.0677
18 2 0 0 0
19 2 3.7005 0 2.35169
20 2 3.7005 2.13648 3.13559
21 2 3.85426 2.04012 5.46627
22 2 2.0193 1.05803 6.31808
23 2 1.99995 0.96946 8.80234
24 2 5.76339 3.10565 9.67357
25 2 3.81469 -0.183102 12.0946
26 2 3.74705 1.97838 12.9872
27 2 3.6476 2.04944 15.2862
28 2 1.94424 0.792255 16.3869
29 2 3.3693 0.974882 18.4253
30 2 1.85025 3.20473 0
31 2 5.55075 3.20473 2.35169
32 2 5.55075 5.34121 3.13559
33 2 5.71162 5.29953 5.44383
34 2 3.85662 4.18746 6.43026
35 2 3.91571 4.1882 8.93875
36 2 7.57852 6.41448 9.80928
37 2 5.66433 3.26618 12.0205
38 2 5.53289 5.28303 12.8867
39 2 5.85389 5.31667 15.2461
40 2 3.84805 4.28338 16.368
41 2 4.46307 3.11984 18.2562
42 2 3.7005 0 0
43 2 7.401 0 2.35169
44 2 7.401 2.13648 3.13559
45 2 7.56838 2.23601 5.4818
46 2 5.89375 1.19483 6.47217
47 2 5.76679 1.0843 8.75265
48 2 9.32886 3.03815 9.6188
49 2 7.5559 -0.0617309 11.9903
50 2 7.50823 2.02399 12.6746
51 2 7.47685 1.85232 15.4848
52 2 5.55279 0.538688 15.5862
53 2 5.66861 0.956097 17.8842
54 2 5.55075 3.20473 0
55 2 9.25125 3.20473 2.35169
56 2 9.25125 5.34121 3.13559
57 2 9.51409 5.41899 5.60467
58 2 7.66634 4.33766 6.54872
59 2 7.56774 4.29729 8.82344
60 2 11.1537 6.3437 9.55568
61 2 9.4043 2.8445 11.9366
62 2 9.5129 5.2787 12.9743
63 2 9.25998 4.61612 15.1985
64 2 7.41807 3.97812 16.3702
65 2 9.09537 5.14398 17.5867
66 3 21.1884 33.5119 23.4015
67 3 17.0932 42.8182 24.1798
68 3 28.9528 39.4461 23.6811
69 3 16.0476 37.3418 23.4971
ITEM: TIMESTEP
900
ITEM: NUMBER OF ATOMS
69
ITEM: BOX BOUNDS xy xz yz pp pp ff
-3.7004999999999999e+00 7.4009999999999998e+00 -3.7004999999999999e+00
0.0000000000000000e+00 6.4094540134086300e+00 0.0000000000000000e+00
0.0000000000000000e+00 4.0329638543820927e+01 0.0000000000000000e+00
ITEM: ATOMS id type xu yu zu
1 1 1.77968 -1.01124 20.2078
2 1 2.98942 -0.29737 20.2113
3 1 0.511973 1.0877 20.2566
4 1 1.72418 1.78338 20.2236
5 1 -0.792563 3.26321 20.3182
6 1 0.448429 3.95725 20.3214
7 1 4.22061 -1.0369 20.4212
8 1 5.43867 -0.386351 20.3906
9 1 2.81636 1.0523 20.286
10 1 1.68069 3.15455 20.2515
11 1 2.85407 4.01858 20.3434
12 1 6.61405 -1.05843 20.428
13 1 7.95038 -0.332187 20.2497
14 1 5.71892 0.988067 20.1566
15 1 6.70951 1.82205 20.333
16 1 4.09661 3.46841 20.2619
17 1 5.34832 3.97608 20.1225
18 2 0 0 0
19 2 3.7005 0 2.35169
20 2 3.7005 2.13648 3.13559
21 2 3.94838 2.14805 5.44789
22 2 1.93656 1.02652 6.3235
23 2 1.80032 1.00933 8.8632
24 2 5.74518 3.21119 9.56286
25 2 3.95951 -0.173436 12.091
26 2 3.82693 1.94776 12.7945
27 2 3.78402 1.93536 15.1766
28 2 2.04483 0.874137 16.3332
29 2 3.3524 0.846842 18.3583
30 2 1.85025 3.20473 0
31 2 5.55075 3.20473 2.35169
32 2 5.55075 5.34121 3.13559
33 2 5.73323 5.27812 5.46745
34 2 3.89644 4.28053 6.44576
35 2 3.81417 4.11061 8.75626
36 2 7.6433 6.31428 9.69374
37 2 5.56 2.97595 11.9919
38 2 5.77302 5.24239 12.8877
39 2 5.68667 5.1342 15.4789
40 2 3.98753 4.21929 16.5119
41 2 4.57932 2.81036 18.5162
42 2 3.7005 0 0
43 2 7.401 0 2.35169
44 2 7.401 2.13648 3.13559
45 2 7.53712 2.21855 5.57056
46 2 5.62839 1.1933 6.41567
47 2 5.58595 1.10123 8.7147
48 2 9.29208 3.2305 9.56586
49 2 7.63702 -0.0472104 11.9194
50 2 7.46655 2.0026 13.0546
51 2 7.37543 1.95323 15.5157
52 2 5.64658 0.621013 15.6132
53 2 5.71048 1.03662 17.9162
54 2 5.55075 3.20473 0
55 2 9.25125 3.20473 2.35169
56 2 9.25125 5.34121 3.13559
57 2 9.62617 5.46091 5.47507
58 2 7.72281 4.43101 6.25254
59 2 7.51301 4.31625 8.71743
60 2 11.1514 6.24828 9.69349
61 2 9.31487 3.13249 11.9226
62 2 9.41844 5.04517 13.0107
63 2 9.37304 4.6122 15.3262
64 2 7.38772 4.05648 16.3158
65 2 9.1326 5.12885 17.6233
66 3 21.3684 33.8013 23.4427
67 3 16.756 42.985 23.8295
68 3 28.9708 39.6228 23.9578
69 3 16.3537 37.3774 23.6975
ITEM: TIMESTEP
1000
ITEM: NUMBER OF ATOMS
69
ITEM: BOX BOUNDS xy xz yz pp pp ff
-3.7004999999999999e+00 7.4009999999999998e+00 -3.7004999999999999e+00
0.0000000000000000e+00 6.4094540134086300e+00 0.0000000000000000e+00
0.0000000000000000e+00 4.0329638543820927e+01 0.0000000000000000e+00
ITEM: ATOMS id type xu yu zu
1 1 1.63517 -1.05134 20.2243
2 1 2.90153 -0.39726 20.1672
3 1 0.462399 1.1471 20.1905
4 1 1.75034 1.84353 20.2067
5 1 -0.694498 3.19266 20.3416
6 1 0.546945 3.98101 20.4201
7 1 4.21344 -1.08953 20.2336
8 1 5.44896 -0.35583 20.2276
9 1 2.75103 0.929448 20.1116
10 1 1.77919 3.17988 20.3865
11 1 3.04821 3.99353 20.4827
12 1 6.67426 -1.07616 20.2512
13 1 7.90794 -0.272238 20.233
14 1 5.61456 1.02667 20.2451
15 1 6.6419 1.81311 20.3745
16 1 4.25501 3.35879 20.3873
17 1 5.45315 3.92147 20.2998
18 2 0 0 0
19 2 3.7005 0 2.35169
20 2 3.7005 2.13648 3.13559
21 2 3.62949 2.28047 5.54587
22 2 1.99103 1.0937 6.51218
23 2 1.92638 0.98576 8.72706
24 2 5.58446 3.27315 9.64742
25 2 3.9801 -0.217729 11.9656
26 2 3.69375 1.99413 12.6596
27 2 3.78601 2.05763 15.146
28 2 2.07147 0.932644 16.1923
29 2 3.43286 0.669881 18.334
30 2 1.85025 3.20473 0
31 2 5.55075 3.20473 2.35169
32 2 5.55075 5.34121 3.13559
33 2 5.74381 5.42344 5.57599
34 2 3.99175 4.2956 6.35364
35 2 3.71236 4.20442 8.60087
36 2 7.35172 6.38886 9.53281
37 2 5.77097 2.90253 11.9464
38 2 5.90986 4.99843 13.0603
39 2 5.49217 5.19172 15.401
40 2 3.90698 3.75179 16.7447
41 2 4.63383 2.89496 18.501
42 2 3.7005 0 0
43 2 7.401 0 2.35169
44 2 7.401 2.13648 3.13559
45 2 7.55527 2.18288 5.5066
46 2 5.56786 1.04445 6.31143
47 2 5.60792 0.98606 8.80725
48 2 9.30767 3.24768 9.59914
49 2 7.5509 -0.222494 12.2035
50 2 7.46462 2.10154 13.2437
51 2 7.63559 1.89409 15.5207
52 2 5.5805 0.665946 15.7495
53 2 5.7855 0.864032 17.881
54 2 5.55075 3.20473 0
55 2 9.25125 3.20473 2.35169
56 2 9.25125 5.34121 3.13559
57 2 9.43536 5.47592 5.37619
58 2 7.62591 4.35057 6.17783
59 2 7.51401 4.29361 8.49121
60 2 11.116 6.28056 9.6434
61 2 9.22755 3.13632 11.9827
62 2 9.49147 5.18615 12.908
63 2 9.64759 4.79254 15.347
64 2 7.48083 4.00514 16.4124
65 2 9.27499 5.06661 17.4903
66 3 21.3582 34.0038 23.5162
67 3 16.567 43.4456 23.3714
68 3 29.3173 39.392 23.9919
69 3 16.4189 37.6729 23.8077
ITEM: TIMESTEP
1100
ITEM: NUMBER OF ATOMS
69
ITEM: BOX BOUNDS xy xz yz pp pp ff
-3.7004999999999999e+00 7.4009999999999998e+00 -3.7004999999999999e+00
0.0000000000000000e+00 6.4094540134086300e+00 0.0000000000000000e+00
0.0000000000000000e+00 4.0329638543820927e+01 0.0000000000000000e+00
ITEM: ATOMS id type xu yu zu
1 1 1.74442 -1.07066 20.1597
2 1 2.93939 -0.334734 19.9749
3 1 0.594848 0.972102 20.3342
4 1 1.73867 1.79629 20.3201
5 1 -0.750533 3.22572 20.4143
6 1 0.478292 3.96131 20.3026
7 1 4.1308 -1.07446 20.3202
8 1 5.42482 -0.451397 20.3234
9 1 2.84344 1.04194 20.0258
10 1 1.73486 3.16629 20.3678
11 1 3.00434 3.90349 20.3143
12 1 6.67809 -1.12163 20.3721
13 1 7.94402 -0.439396 20.2613
14 1 5.78321 0.921069 20.2598
15 1 6.79717 1.79643 20.3853
16 1 4.22153 3.32421 20.3703
17 1 5.44772 3.90907 20.277
18 2 0 0 0
19 2 3.7005 0 2.35169
20 2 3.7005 2.13648 3.13559
21 2 3.69599 2.17569 5.4899
22 2 1.86781 1.19913 6.46388
23 2 1.81938 1.1472 8.81718
24 2 5.58516 3.1449 9.53574
25 2 3.6904 -0.170705 11.8512
26 2 3.73233 1.97554 12.7516
27 2 3.7301 2.06293 15.0175
28 2 2.29024 0.781383 16.2138
29 2 3.54838 0.660932 18.204
30 2 1.85025 3.20473 0
31 2 5.55075 3.20473 2.35169
32 2 5.55075 5.34121 3.13559
33 2 5.69803 5.50973 5.4389
34 2 3.75761 4.43512 6.25172
35 2 3.73619 4.34511 8.77125
36 2 7.37615 6.28685 9.55557
37 2 5.75678 3.02835 11.9976
38 2 5.74568 4.93846 13.0622
39 2 5.53093 5.05722 15.4655
40 2 3.80048 3.78366 16.5499
41 2 4.75405 2.77588 18.5936
42 2 3.7005 0 0
43 2 7.401 0 2.35169
44 2 7.401 2.13648 3.13559
45 2 7.4024 2.03595 5.44234
46 2 5.61792 1.21204 6.42625
47 2 5.60961 1.07346 8.75068
48 2 9.22859 3.10299 9.58065
49 2 7.82151 -0.179284 12.3189
50 2 7.60886 1.91793 12.9976
51 2 7.59412 1.84361 15.6485
52 2 5.71705 0.814594 15.7521
53 2 5.84043 0.852979 18.0007
54 2 5.55075 3.20473 0
55 2 9.25125 3.20473 2.35169
56 2 9.25125 5.34121 3.13559
57 2 9.31185 5.29127 5.52047
58 2 7.41847 4.17584 6.34042
59 2 7.42158 4.18359 8.67589
60 2 11.1991 6.40512 9.68286
61 2 9.245 2.97067 11.9486
62 2 9.44444 5.26929 12.9148
63 2 9.77321 5.0166 15.1118
64 2 7.41948 4.02722 16.3634
65 2 9.35591 4.88604 17.4693
66 3 21.1812 34.3509 23.5285
67 3 16.5472 43.7653 23.1112
68 3 29.4351 39.3808 23.8526
69 3 16.7182 37.718 23.7092
ITEM: TIMESTEP
1200
ITEM: NUMBER OF ATOMS
69
ITEM: BOX BOUNDS xy xz yz pp pp ff
-3.7004999999999999e+00 7.4009999999999998e+00 -3.7004999999999999e+00
0.0000000000000000e+00 6.4094540134086300e+00 0.0000000000000000e+00
0.0000000000000000e+00 4.0329638543820927e+01 0.0000000000000000e+00
ITEM: ATOMS id type xu yu zu
1 1 1.78948 -1.15556 20.1724
2 1 3.00714 -0.455198 20.0466
3 1 0.577915 1.02024 20.5116
4 1 1.75446 1.65909 20.2049
5 1 -0.714618 3.16055 20.3599
6 1 0.550658 3.84478 20.3296
7 1 4.32571 -1.13637 20.2369
8 1 5.52989 -0.469635 20.4161
9 1 2.87416 0.8926 20.0802
10 1 1.81157 3.11932 20.2296
11 1 2.97825 3.8282 20.2637
12 1 6.75609 -1.10681 20.4235
13 1 7.96823 -0.426591 20.3598
14 1 5.71108 0.890304 20.3087
15 1 6.67228 1.72417 20.4392
16 1 4.19662 3.29286 20.2443
17 1 5.45105 3.8307 20.1565
18 2 0 0 0
19 2 3.7005 0 2.35169
20 2 3.7005 2.13648 3.13559
21 2 3.8698 2.22137 5.47339
22 2 1.82498 1.13449 6.29539
23 2 1.88006 0.983495 8.75556
24 2 5.52541 3.10755 9.63128
25 2 3.63766 -0.182961 12.0251
26 2 3.89573 1.93536 12.7118
27 2 3.8166 1.84509 15.0439
28 2 2.2637 0.654705 16.2328
29 2 3.64733 0.675781 18.2925
30 2 1.85025 3.20473 0
31 2 5.55075 3.20473 2.35169
32 2 5.55075 5.34121 3.13559
33 2 5.54125 5.39073 5.46358
34 2 3.66902 4.34544 6.42365
35 2 3.72525 4.30821 8.79838
36 2 7.53268 6.31479 9.57328
37 2 5.62259 2.91993 11.9598
38 2 5.71914 5.08643 13.0915
39 2 5.67286 4.92616 15.4658
40 2 3.94664 3.98027 16.3814
41 2 4.66094 2.84798 18.3942
42 2 3.7005 0 0
43 2 7.401 0 2.35169
44 2 7.401 2.13648 3.13559
45 2 7.3064 2.12634 5.48223
46 2 5.46625 1.03042 6.46505
47 2 5.51813 0.988315 8.74946
48 2 9.3078 3.29719 9.6678
49 2 7.70423 -0.17563 11.9357
50 2 7.59216 1.87344 13.0299
51 2 7.73935 1.9379 15.5667
52 2 5.72942 0.873941 15.7276
53 2 5.97913 0.73441 18.0074
54 2 5.55075 3.20473 0
55 2 9.25125 3.20473 2.35169
56 2 9.25125 5.34121 3.13559
57 2 9.03263 5.36538 5.63457
58 2 7.2567 4.19826 6.46392
59 2 7.34676 4.169 8.88859
60 2 11.1545 6.48137 9.87198
61 2 9.44938 3.15996 11.9429
62 2 9.25631 5.14928 12.6537
63 2 9.58686 5.16174 15.1219
64 2 7.56445 4.03959 16.2154
65 2 9.27137 4.88138 17.3903
66 3 20.9881 34.6259 23.4809
67 3 16.4041 43.9132 23.1791
68 3 29.4912 39.6805 23.6743
69 3 17.2116 37.6414 23.4585
ITEM: TIMESTEP
1300
ITEM: NUMBER OF ATOMS
69
ITEM: BOX BOUNDS xy xz yz pp pp ff
-3.7004999999999999e+00 7.4009999999999998e+00 -3.7004999999999999e+00
0.0000000000000000e+00 6.4094540134086300e+00 0.0000000000000000e+00
0.0000000000000000e+00 4.0329638543820927e+01 0.0000000000000000e+00
ITEM: ATOMS id type xu yu zu
1 1 1.83836 -1.20737 20.3168
2 1 3.0083 -0.515905 20.2728
3 1 0.633191 0.990773 20.3632
4 1 1.84523 1.64082 20.3304
5 1 -0.659546 3.03396 20.2865
6 1 0.573545 3.7745 20.271
7 1 4.25259 -1.18274 20.3034
8 1 5.49943 -0.47341 20.2382
9 1 2.89405 0.822311 20.1748
10 1 1.86689 3.11355 20.282
11 1 3.04522 3.77203 20.3542
12 1 6.71174 -1.17364 20.3982