ITEM: TIMESTEP
0
ITEM: NUMBER OF ATOMS
70
ITEM: BOX BOUNDS xy xz yz pp pp ff
-3.7004999999999999e+00 7.4009999999999998e+00 -3.7004999999999999e+00
0.0000000000000000e+00 6.4094540134086300e+00 0.0000000000000000e+00
0.0000000000000000e+00 4.0329638543820927e+01 0.0000000000000000e+00
ITEM: ATOMS id type xu yu zu
1 1 24.5652 15.0294 20.3767
2 1 25.7778 15.6939 20.3938
3 1 23.3256 17.1064 20.4629
4 1 24.5356 17.818 20.5065
5 1 22.069 19.2441 20.3953
6 1 23.3706 19.9821 20.3355
7 1 27.0183 14.9559 20.3387
8 1 28.2666 15.6885 20.2876
9 1 25.7659 17.1596 20.5346
10 1 27.0323 17.8323 20.4803
11 1 24.5954 19.2179 20.4219
12 1 25.7973 19.9718 20.3745
13 1 29.4637 14.9549 20.3705
14 1 30.6516 15.6125 20.3857
15 1 28.3125 17.1412 20.4914
16 1 29.4966 17.8176 20.2998
17 1 27.0249 19.2679 20.3604
18 1 28.2567 19.9795 20.4275
19 2 0 0 0
20 2 3.7005 0 2.35169
21 2 3.7005 2.13648 3.13559
22 2 3.7496 2.24386 5.60579
23 2 1.75262 1.24687 6.43684
24 2 1.8161 1.33915 8.84037
25 2 5.55024 3.44733 9.71101
26 2 3.5006 0.122125 12.1354
27 2 3.66342 2.18547 13.2149
28 2 2.39642 3.07628 15.1313
29 2 1.24668 1.59804 17.0028
30 2 -1.19613 2.88062 17.2043
31 2 1.85025 3.20473 0
32 2 5.55075 3.20473 2.35169
33 2 5.55075 5.34121 3.13559
34 2 5.50588 5.48858 5.50042
35 2 3.65399 4.39884 6.34416
36 2 3.71718 4.56045 8.77295
37 2 7.22195 6.49458 9.73821
38 2 5.37272 3.47469 12.0741
39 2 5.561 5.47598 13.3987
40 2 4.24064 6.27619 15.2544
41 2 3.27876 4.53122 16.9356
42 2 0.513929 6.04146 17.1023
43 2 3.7005 0 0
44 2 7.401 0 2.35169
45 2 7.401 2.13648 3.13559
46 2 7.31442 2.30163 5.5156
47 2 5.55831 1.14029 6.56976
48 2 5.44189 1.30239 9.01306
49 2 9.25907 3.47734 9.54583
50 2 7.44359 0.187932 12.0074
51 2 7.29991 2.26814 12.8012
52 2 7.5323 2.17411 15.1787
53 2 4.95393 1.42087 15.4128
54 2 3.83253 2.22224 17.1162
55 2 5.55075 3.20473 0
56 2 9.25125 3.20473 2.35169
57 2 9.25125 5.34121 3.13559
58 2 9.23001 5.47579 5.44548
59 2 7.38574 4.507 6.41817
60 2 7.33353 4.41404 8.61402
61 2 11.1249 6.67241 9.70932
62 2 9.20143 3.39344 11.9625
63 2 9.24263 5.53729 12.8736
64 2 9.28474 5.52347 15.2311
65 2 7.07185 4.55425 15.4137
66 2 5.63018 5.47188 17.1665
67 3 -58.525 78.5136 23.6308
68 3 -68.671 76.99 23.6253
69 3 -55.9874 74.7684 23.5218
70 3 -63.4144 80.2956 23.7492
ITEM: TIMESTEP
100
ITEM: NUMBER OF ATOMS
70
ITEM: BOX BOUNDS xy xz yz pp pp ff
-3.7004999999999999e+00 7.4009999999999998e+00 -3.7004999999999999e+00
0.0000000000000000e+00 6.4094540134086300e+00 0.0000000000000000e+00
0.0000000000000000e+00 4.0329638543820927e+01 0.0000000000000000e+00
ITEM: ATOMS id type xu yu zu
1 1 24.5772 15.0049 20.4901
2 1 25.8647 15.6189 20.5071
3 1 23.3635 17.1989 20.4703
4 1 24.6672 17.8428 20.4449
5 1 22.0886 19.2511 20.3843
6 1 23.3785 19.9936 20.4702
7 1 27.1216 14.9557 20.4695
8 1 28.3578 15.6924 20.4265
9 1 25.8461 17.1141 20.3595
10 1 27.0567 17.8286 20.2719
11 1 24.6008 19.2799 20.471
12 1 25.8264 20.0015 20.3627
13 1 29.5958 15.0355 20.3346
14 1 30.7836 15.7185 20.4068
15 1 28.3867 17.1541 20.2625
16 1 29.5259 17.8581 20.4471
17 1 27.0336 19.2701 20.3224
18 1 28.2273 19.9815 20.3422
19 2 0 0 0
20 2 3.7005 0 2.35169
21 2 3.7005 2.13648 3.13559
22 2 3.71391 2.18114 5.61527
23 2 1.85198 1.1891 6.48888
24 2 1.97189 1.32174 8.74477
25 2 5.57567 3.54688 9.63475
26 2 3.66157 0.0555133 12.1579
27 2 3.72518 2.19652 13.1084
28 2 2.19755 2.84157 15.2235
29 2 1.472 1.32371 17.0611
30 2 -1.14311 2.96074 17.0475
31 2 1.85025 3.20473 0
32 2 5.55075 3.20473 2.35169
33 2 5.55075 5.34121 3.13559
34 2 5.5663 5.41424 5.49793
35 2 3.64223 4.44971 6.25916
36 2 3.68901 4.48971 8.7244
37 2 7.3392 6.54605 9.74223
38 2 5.58161 3.38658 12.2661
39 2 5.67058 5.38168 13.3415
40 2 4.36574 6.05231 15.2966
41 2 3.19753 4.4798 16.8965
42 2 0.724403 6.05683 17.0378
43 2 3.7005 0 0
44 2 7.401 0 2.35169
45 2 7.401 2.13648 3.13559
46 2 7.32005 2.23905 5.6344
47 2 5.52977 1.11404 6.63086
48 2 5.51278 1.16714 8.98692
49 2 9.27148 3.45038 9.68502
50 2 7.57482 0.139218 12.0219
51 2 7.41538 2.34365 12.8516
52 2 7.3089 2.05516 15.1249
53 2 5.04886 1.30093 15.2664
54 2 3.81448 2.07314 17.1109
55 2 5.55075 3.20473 0
56 2 9.25125 3.20473 2.35169
57 2 9.25125 5.34121 3.13559
58 2 9.2152 5.45892 5.4321
59 2 7.41809 4.36729 6.28071
60 2 7.40559 4.57175 8.74834
61 2 11.1751 6.62615 9.62623
62 2 9.31339 3.30664 12.0694
63 2 9.33656 5.44934 12.8997
64 2 9.34465 5.33549 15.1844
65 2 6.91203 4.4632 15.2977
66 2 5.72308 5.39467 17.0886
67 3 -58.2674 78.917 23.6435
68 3 -69.1038 76.7659 23.3498
69 3 -55.9967 75.1024 23.5376
70 3 -63.786 80.4603 23.7055
ITEM: TIMESTEP
200
ITEM: NUMBER OF ATOMS
70
ITEM: BOX BOUNDS xy xz yz pp pp ff
-3.7004999999999999e+00 7.4009999999999998e+00 -3.7004999999999999e+00
0.0000000000000000e+00 6.4094540134086300e+00 0.0000000000000000e+00
0.0000000000000000e+00 4.0329638543820927e+01 0.0000000000000000e+00
ITEM: ATOMS id type xu yu zu
1 1 24.6684 14.939 20.3651
2 1 25.8843 15.7611 20.3937
3 1 23.3646 17.1132 20.2873
4 1 24.6222 17.873 20.31
5 1 22.2766 19.2118 20.4501
6 1 23.4585 20.0403 20.5234
7 1 27.0904 15.0572 20.4849
8 1 28.3486 15.7108 20.4844
9 1 25.8889 17.2453 20.345
10 1 27.1212 17.955 20.3319
11 1 24.6619 19.3453 20.3157
12 1 25.9452 19.9917 20.3975
13 1 29.5895 14.9903 20.5301
14 1 30.8556 15.6945 20.4643
15 1 28.3734 17.141 20.3616
16 1 29.5938 17.8032 20.3767
17 1 27.2302 19.3173 20.3819
18 1 28.444 19.9816 20.4398
19 2 0 0 0
20 2 3.7005 0 2.35169
21 2 3.7005 2.13648 3.13559
22 2 3.6715 2.22392 5.47794
23 2 1.91294 1.0852 6.34118
24 2 1.92514 1.26207 8.78329
25 2 5.53303 3.34758 9.75668
26 2 3.89623 0.112022 12.1958
27 2 3.84705 2.15059 13.2646
28 2 2.31962 2.58911 15.3191
29 2 1.47645 1.14264 17.0971
30 2 -1.22078 2.8756 16.9086
31 2 1.85025 3.20473 0
32 2 5.55075 3.20473 2.35169
33 2 5.55075 5.34121 3.13559
34 2 5.57453 5.43645 5.50243
35 2 3.75642 4.31467 6.41205
36 2 3.70364 4.42905 8.63193
37 2 7.55643 6.72484 9.81279
38 2 5.58531 3.25278 12.1318
39 2 5.7285 5.34319 13.1756
40 2 4.37281 5.87994 15.3791
41 2 3.15638 4.51183 17.0156
42 2 1.01011 6.01691 16.9642
43 2 3.7005 0 0
44 2 7.401 0 2.35169
45 2 7.401 2.13648 3.13559
46 2 7.433 2.03108 5.59435
47 2 5.49043 1.16688 6.46315
48 2 5.68371 1.30788 8.81895
49 2 9.27707 3.37639 9.70207
50 2 7.61472 0.0360241 12.0861
51 2 7.61453 2.19991 12.9165
52 2 7.28513 1.96 15.184
53 2 5.152 1.19199 15.0208
54 2 3.74686 1.99666 17.1126
55 2 5.55075 3.20473 0
56 2 9.25125 3.20473 2.35169
57 2 9.25125 5.34121 3.13559
58 2 9.2214 5.47184 5.60226
59 2 7.38875 4.26415 6.3808
60 2 7.54419 4.4927 8.83893
61 2 11.244 6.53956 9.5721
62 2 9.51942 3.28224 12.0707
63 2 9.45961 5.41662 12.7769
64 2 9.30148 5.03511 15.0434
65 2 6.92283 4.53331 15.106
66 2 5.75111 5.14734 17.0986
67 3 -58.3089 78.8855 23.6287
68 3 -69.1909 76.9675 23.245
69 3 -56.5109 75.2073 23.6399
70 3 -63.7947 80.9392 23.6392
ITEM: TIMESTEP
300
ITEM: NUMBER OF ATOMS
70
ITEM: BOX BOUNDS xy xz yz pp pp ff
-3.7004999999999999e+00 7.4009999999999998e+00 -3.7004999999999999e+00
0.0000000000000000e+00 6.4094540134086300e+00 0.0000000000000000e+00
0.0000000000000000e+00 4.0329638543820927e+01 0.0000000000000000e+00
ITEM: ATOMS id type xu yu zu
1 1 24.7224 15.0093 20.4403
2 1 26.0319 15.7097 20.3619
3 1 23.4877 17.1867 20.3775
4 1 24.7672 17.8794 20.2735
5 1 22.1828 19.403 20.3299
6 1 23.4819 19.9523 20.2195
7 1 27.2311 15.0025 20.3649
8 1 28.4802 15.7777 20.4482
9 1 26.0653 17.1151 20.3414
10 1 27.241 17.8903 20.5424
11 1 24.7468 19.3049 20.4127
12 1 25.9658 20.0273 20.5337
13 1 29.6482 15.0133 20.3687
14 1 30.8723 15.7944 20.3147
15 1 28.4967 17.2155 20.5982
16 1 29.6579 17.9757 20.3614
17 1 27.1817 19.2607 20.4866
18 1 28.3398 20.0543 20.468
19 2 0 0 0
20 2 3.7005 0 2.35169
21 2 3.7005 2.13648 3.13559
22 2 3.71434 2.24746 5.40337
23 2 1.95206 1.06124 6.39541
24 2 1.975 1.12278 8.7723
25 2 5.66165 3.32949 9.71113
26 2 3.88127 0.150169 12.1596
27 2 3.96584 2.08931 13.4211
28 2 2.46918 2.5448 15.3302
29 2 1.25344 1.03127 17.0649
30 2 -1.39892 2.5741 16.8751
31 2 1.85025 3.20473 0
32 2 5.55075 3.20473 2.35169
33 2 5.55075 5.34121 3.13559
34 2 5.60749 5.27008 5.51697
35 2 3.75392 4.2974 6.40591
36 2 3.81723 4.31283 8.86978
37 2 7.65916 6.70626 9.70802
38 2 5.70004 3.14791 12.0549
39 2 5.78187 5.33587 12.989
40 2 4.4091 5.75235 15.3187
41 2 3.12539 4.45029 17.1472
42 2 1.04174 5.91039 16.8574
43 2 3.7005 0 0
44 2 7.401 0 2.35169
45 2 7.401 2.13648 3.13559
46 2 7.46554 2.05802 5.37972
47 2 5.52727 1.20384 6.26703
48 2 5.8356 1.32423 8.63534
49 2 9.4138 3.25495 9.59859
50 2 7.7455 0.0130791 11.9206
51 2 7.67859 2.05938 12.8284
52 2 7.67163 1.86427 15.1827
53 2 5.31081 0.953359 15.132
54 2 3.8657 1.8982 17.0327
55 2 5.55075 3.20473 0
56 2 9.25125 3.20473 2.35169
57 2 9.25125 5.34121 3.13559
58 2 9.29153 5.29646 5.63953
59 2 7.43087 4.23811 6.60706
60 2 7.40835 4.40783 8.9285
61 2 11.2599 6.45625 9.65551
62 2 9.61509 3.17734 11.9653
63 2 9.54216 5.35412 12.7374
64 2 9.36045 4.87808 14.9794
65 2 6.96341 4.52534 15.152
66 2 5.84259 5.04317 17.1891
67 3 -58.7046 78.9859 23.6019
68 3 -69.1257 77.267 23.4442
69 3 -56.8936 75.0899 23.7107
70 3 -63.7646 81.449 23.5301
ITEM: TIMESTEP
400
ITEM: NUMBER OF ATOMS
70
ITEM: BOX BOUNDS xy xz yz pp pp ff
-3.7004999999999999e+00 7.4009999999999998e+00 -3.7004999999999999e+00
0.0000000000000000e+00 6.4094540134086300e+00 0.0000000000000000e+00
0.0000000000000000e+00 4.0329638543820927e+01 0.0000000000000000e+00
ITEM: ATOMS id type xu yu zu
1 1 24.836 15.008 20.3391
2 1 26.0303 15.7988 20.3868
3 1 23.5885 17.1668 20.4266
4 1 24.8026 17.9932 20.5251
5 1 22.3733 19.32 20.4375
6 1 23.5501 20.0219 20.3552
7 1 27.2736 15.079 20.3122
8 1 28.5256 15.7718 20.3055
9 1 26.0404 17.2101 20.6082
10 1 27.2438 17.9314 20.4885
11 1 24.7969 19.3845 20.3552
12 1 26.1073 20.0593 20.2609
13 1 29.7626 15.0808 20.4257
14 1 30.9807 15.7774 20.4107
15 1 28.4565 17.2104 20.3186
16 1 29.6845 17.8694 20.4338
17 1 27.3003 19.3403 20.5313
18 1 28.5263 19.9768 20.3227
19 2 0 0 0
20 2 3.7005 0 2.35169
21 2 3.7005 2.13648 3.13559
22 2 3.73155 2.12641 5.56611
23 2 1.93162 1.00353 6.37976
24 2 2.12304 0.991156 8.67205
25 2 5.78654 3.22574 9.69204
26 2 3.91295 0.00784676 12.0318
27 2 4.10062 2.02352 13.3248
28 2 2.67208 2.64577 15.3365
29 2 1.22907 0.964318 17.0598
30 2 -1.17238 2.36097 16.9035
31 2 1.85025 3.20473 0
32 2 5.55075 3.20473 2.35169
33 2 5.55075 5.34121 3.13559
34 2 5.70909 5.24189 5.60201
35 2 3.76192 4.32437 6.50408
36 2 3.92034 4.27465 8.84741
37 2 7.6923 6.47949 9.54361
38 2 5.8628 3.13798 12.1928
39 2 5.899 5.18206 13.0281
40 2 4.55456 5.622 15.2676
41 2 3.20185 4.24416 17.0761
42 2 0.752045 5.69115 16.8936
43 2 3.7005 0 0
44 2 7.401 0 2.35169
45 2 7.401 2.13648 3.13559
46 2 7.505 2.26448 5.52105
47 2 5.72137 0.995478 6.20064
48 2 5.82146 1.08204 8.57871
49 2 9.38693 3.15988 9.54489
50 2 7.75466 -0.0708697 11.8256
51 2 7.7077 2.11292 12.6747
52 2 7.83184 1.68761 15.0048
53 2 5.58607 0.904453 15.2148
54 2 3.76068 1.65158 17.1161
55 2 5.55075 3.20473 0
56 2 9.25125 3.20473 2.35169
57 2 9.25125 5.34121 3.13559
58 2 9.25325 5.29064 5.49031
59 2 7.51926 4.20114 6.52839
60 2 7.60632 4.43261 8.95055
61 2 11.2569 6.44065 9.52062
62 2 9.59492 3.04773 11.8876
63 2 9.48935 5.26217 12.683
64 2 9.62856 4.91616 15.1071
65 2 6.91524 4.36166 15.2921
66 2 5.84921 5.04336 17.2284
67 3 -59.5406 79.3167 23.5642
68 3 -69.0881 77.5574 23.8303
69 3 -56.8095 74.9426 23.7051
70 3 -63.7881 81.8354 23.4408
ITEM: TIMESTEP
500
ITEM: NUMBER OF ATOMS
70
ITEM: BOX BOUNDS xy xz yz pp pp ff
-3.7004999999999999e+00 7.4009999999999998e+00 -3.7004999999999999e+00
0.0000000000000000e+00 6.4094540134086300e+00 0.0000000000000000e+00
0.0000000000000000e+00 4.0329638543820927e+01 0.0000000000000000e+00
ITEM: ATOMS id type xu yu zu
1 1 24.8773 15.094 20.4987
2 1 26.0902 15.8095 20.4997
3 1 23.6193 17.2088 20.4843
4 1 24.8721 17.944 20.475
5 1 22.4787 19.3671 20.3598
6 1 23.6665 20.0988 20.5198
7 1 27.3493 15.0998 20.4526
8 1 28.5757 15.7496 20.3243
9 1 26.1603 17.2722 20.3193
10 1 27.3865 17.9709 20.2426
11 1 24.8907 19.323 20.4998
12 1 26.1332 20.0241 20.3888
13 1 29.7887 15.0426 20.2531
14 1 30.9928 15.7527 20.432
15 1 28.589 17.2728 20.3905
16 1 29.7964 17.9232 20.4208
17 1 27.3383 19.413 20.2369
18 1 28.5825 20.0643 20.4455
19 2 0 0 0
20 2 3.7005 0 2.35169
21 2 3.7005 2.13648 3.13559
22 2 3.89163 2.05734 5.62558
23 2 1.95205 1.00664 6.27901
24 2 2.11224 1.00271 8.62867
25 2 5.84872 3.02691 9.73449
26 2 3.95805 -0.119565 11.9347
27 2 4.20755 1.855 13.1331
28 2 2.87523 2.50189 15.1924
29 2 1.39552 0.961823 17.0866
30 2 -0.748522 2.32941 16.9917
31 2 1.85025 3.20473 0
32 2 5.55075 3.20473 2.35169
33 2 5.55075 5.34121 3.13559
34 2 5.6424 5.29879 5.52748
35 2 3.84494 4.19507 6.42307
36 2 3.93649 4.17538 8.70625
37 2 7.68501 6.3514 9.62557
38 2 5.79604 3.12618 12.0789
39 2 5.90835 5.1892 13.2094
40 2 4.78651 5.56356 15.2354
41 2 3.4233 4.03591 17.08
42 2 0.62461 5.48984 16.9818
43 2 3.7005 0 0
44 2 7.401 0 2.35169
45 2 7.401 2.13648 3.13559
46 2 7.56355 2.12064 5.59467
47 2 5.74777 0.979876 6.34935
48 2 5.71691 0.973295 8.66538
49 2 9.57222 3.07052 9.56597
50 2 7.69183 -0.21487 11.9052
51 2 7.82206 1.926 12.6417
52 2 7.91618 1.60389 14.9231
53 2 5.46917 1.01117 15.1609
54 2 3.76176 1.48833 17.2457
55 2 5.55075 3.20473 0
56 2 9.25125 3.20473 2.35169
57 2 9.25125 5.34121 3.13559
58 2 9.38253 5.2817 5.39321
59 2 7.57105 4.35437 6.43563
60 2 7.78085 4.13265 8.68516
61 2 11.4246 6.34075 9.38287
62 2 9.70717 2.99864 11.8807
63 2 9.52876 5.11199 12.6551
64 2 9.76205 5.06662 15.1168
65 2 6.88085 4.11118 15.3422
66 2 5.62755 4.87681 17.2646
67 3 -59.8978 79.1395 23.4502
68 3 -69.309 77.8302 24.1672
69 3 -57.0621 75.4066 23.6887
70 3 -63.7164 82.1573 23.5026
ITEM: TIMESTEP
600
ITEM: NUMBER OF ATOMS
70
ITEM: BOX BOUNDS xy xz yz pp pp ff
-3.7004999999999999e+00 7.4009999999999998e+00 -3.7004999999999999e+00
0.0000000000000000e+00 6.4094540134086300e+00 0.0000000000000000e+00
0.0000000000000000e+00 4.0329638543820927e+01 0.0000000000000000e+00
ITEM: ATOMS id type xu yu zu
1 1 24.9431 15.0954 20.3847
2 1 26.2106 15.7531 20.4057
3 1 23.6819 17.3097 20.3628
4 1 24.9799 17.9866 20.2767
5 1 22.4028 19.3715 20.5422
6 1 23.7047 20.0923 20.4683
7 1 27.4534 15.06 20.4717
8 1 28.6626 15.7844 20.5032
9 1 26.2057 17.1899 20.3119
10 1 27.4291 17.8894 20.3776
11 1 24.9802 19.3928 20.3123
12 1 26.1896 20.1321 20.4578
13 1 29.9002 15.1068 20.4912
14 1 31.1236 15.8249 20.4231
15 1 28.7121 17.2905 20.2951
16 1 29.9043 18.0157 20.3804
17 1 27.3165 19.4044 20.3333
18 1 28.5766 20.1224 20.4455
19 2 0 0 0
20 2 3.7005 0 2.35169
21 2 3.7005 2.13648 3.13559
22 2 3.95036 2.03234 5.37872
23 2 2.10805 1.05041 6.31173
24 2 2.16186 0.924571 8.64476
25 2 5.8817 3.05073 9.54698
26 2 3.97843 -0.325681 12.0661
27 2 4.18819 1.74745 12.9861
28 2 2.97382 2.31465 15.1394
29 2 1.62956 0.912542 17.0417
30 2 -0.58638 2.2216 16.9917
31 2 1.85025 3.20473 0
32 2 5.55075 3.20473 2.35169
33 2 5.55075 5.34121 3.13559
34 2 5.63657 5.29961 5.38899
35 2 3.91149 4.09691 6.22806
36 2 4.14773 4.05752 8.64634
37 2 7.56658 6.08205 9.59733
38 2 5.88492 3.03981 11.9973
39 2 5.90316 5.14413 13.1075
40 2 4.77125 5.60766 15.3313
41 2 3.4425 3.89327 17.056
42 2 0.848881 5.42271 16.9635
43 2 3.7005 0 0
44 2 7.401 0 2.35169
45 2 7.401 2.13648 3.13559
46 2 7.5238 2.08784 5.43679
47 2 5.72896 1.02 6.51132
48 2 5.83662 0.878379 8.87413
49 2 9.73249 3.01793 9.53665
50 2 7.81646 -0.363998 11.8078
51 2 7.76049 1.80241 12.6179
52 2 8.01697 1.63702 15.0841
53 2 5.20033 1.09803 15.3305
54 2 4.01733 1.50798 17.192
55 2 5.55075 3.20473 0
56 2 9.25125 3.20473 2.35169
57 2 9.25125 5.34121 3.13559
58 2 9.54238 5.27556 5.55335
59 2 7.56807 4.28788 6.22811
60 2 7.66946 3.9593 8.6593
61 2 11.4094 6.18 9.5441
62 2 9.81792 2.84806 11.9049
63 2 9.58761 5.03541 12.7377
64 2 9.74026 5.01865 15.0936
65 2 6.96214 4.01381 15.364
66 2 5.59186 4.66011 17.2932
67 3 -59.7826 78.9149 23.3102
68 3 -69.9021 77.9873 24.4889
69 3 -57.2765 76.092 23.6212
70 3 -63.7002 82.3496 23.6181
ITEM: TIMESTEP
700
ITEM: NUMBER OF ATOMS
70
ITEM: BOX BOUNDS xy xz yz pp pp ff
-3.7004999999999999e+00 7.4009999999999998e+00 -3.7004999999999999e+00
0.0000000000000000e+00 6.4094540134086300e+00 0.0000000000000000e+00
0.0000000000000000e+00 4.0329638543820927e+01 0.0000000000000000e+00
ITEM: ATOMS id type xu yu zu
1 1 25.0168 15.0777 20.4298
2 1 26.236 15.9041 20.3412
3 1 23.7333 17.2277 20.2855
4 1 24.9601 17.9988 20.3593
5 1 22.5536 19.319 20.2917
6 1 23.7951 20.1637 20.3157
7 1 27.4695 15.1656 20.3443
8 1 28.68 15.8337 20.4317
9 1 26.2002 17.3213 20.3884
10 1 27.4649 18.0116 20.5004
11 1 25.0355 19.4456 20.3965
12 1 26.3155 20.1153 20.3613
13 1 29.9223 15.0929 20.4169
14 1 31.1494 15.7823 20.3898
15 1 28.6751 17.262 20.5565
16 1 29.9388 17.9007 20.4547
17 1 27.5283 19.4749 20.5748
18 1 28.7933 20.0916 20.4051
19 2 0 0 0
20 2 3.7005 0 2.35169
21 2 3.7005 2.13648 3.13559
22 2 3.90557 1.95329 5.42843
23 2 2.04685 1.01479 6.35113
24 2 2.18266 0.765928 8.72572
25 2 5.93643 2.90827 9.58425
26 2 4.07412 -0.480755 12.0395
27 2 4.1611 1.72744 12.976
28 2 3.03047 2.25213 15.2699
29 2 1.83468 0.77216 17.0535
30 2 -0.768744 2.18209 17.0094
31 2 1.85025 3.20473 0
32 2 5.55075 3.20473 2.35169
33 2 5.55075 5.34121 3.13559
34 2 5.81184 5.3438 5.48507
35 2 3.96875 4.16381 6.30306
36 2 4.1239 4.05501 8.52819
37 2 7.68004 5.97489 9.61701
38 2 5.993 2.86928 11.935
39 2 5.90746 4.86129 13.0352
40 2 4.66077 5.56977 15.3947
41 2 3.21806 3.90511 16.9837
42 2 1.11048 5.44548 16.9014
43 2 3.7005 0 0
44 2 7.401 0 2.35169
45 2 7.401 2.13648 3.13559
46 2 7.58768 2.05737 5.47637
47 2 5.83109 0.938961 6.51656
48 2 5.81451 0.687931 8.93333
49 2 9.64633 2.94968 9.4769
50 2 7.8501 -0.406398 11.8777
51 2 7.81768 1.75209 12.7029
52 2 8.04657 1.66446 15.0427
53 2 5.22319 0.922174 15.3744
54 2 4.21667 1.54196 17.2727
55 2 5.55075 3.20473 0
56 2 9.25125 3.20473 2.35169
57 2 9.25125 5.34121 3.13559
58 2 9.42526 5.33437 5.5869
59 2 7.62594 4.10024 6.24722
60 2 7.80212 3.97405 8.59808
61 2 11.4527 6.0901 9.55392
62 2 9.65308 2.73928 11.8731
63 2 9.72423 4.9037 12.7678
64 2 9.70417 4.82036 15.1118
65 2 7.15725 4.12525 15.3768
66 2 5.92612 4.6111 17.2813
67 3 -59.7147 78.6737 23.4739
68 3 -70.2852 78.1748 24.6138
69 3 -57.2777 76.7134 23.5097
70 3 -63.9967 82.5136 23.6896
ITEM: TIMESTEP
800
ITEM: NUMBER OF ATOMS
70
ITEM: BOX BOUNDS xy xz yz pp pp ff
-3.7004999999999999e+00 7.4009999999999998e+00 -3.7004999999999999e+00
0.0000000000000000e+00 6.4094540134086300e+00 0.0000000000000000e+00
0.0000000000000000e+00 4.0329638543820927e+01 0.0000000000000000e+00
ITEM: ATOMS id type xu yu zu
1 1 25.0024 15.1517 20.338
2 1 26.3413 15.8382 20.4377
3 1 23.8417 17.3149 20.5623
4 1 25.1111 17.9262 20.4675
5 1 22.5539 19.5033 20.4102
6 1 23.8635 20.132 20.3129
7 1 27.5787 15.1177 20.3605
8 1 28.812 15.885 20.3064
9 1 26.3758 17.2333 20.5795
10 1 27.5905 18.0228 20.4625
11 1 25.0475 19.3954 20.3616
12 1 26.2733 20.1098 20.4146
13 1 30.0435 15.141 20.3268
14 1 31.2013 15.8954 20.3596
15 1 28.8068 17.2886 20.4176
16 1 29.9841 18.0431 20.3762
17 1 27.5185 19.4301 20.3579
18 1 28.6679 20.1326 20.3914
19 2 0 0 0
20 2 3.7005 0 2.35169
21 2 3.7005 2.13648 3.13559
22 2 3.94401 2.04874 5.72801
23 2 2.04692 0.903858 6.45916
24 2 2.23795 0.675578 8.76758
25 2 5.93846 2.76261 9.57058
26 2 4.12774 -0.505331 11.9895
27 2 4.12421 1.62455 12.9859
28 2 2.99486 2.18385 15.465
29 2 1.88758 0.681338 17.1003
30 2 -0.92226 2.26083 16.964
31 2 1.85025 3.20473 0
32 2 5.55075 3.20473 2.35169
33 2 5.55075 5.34121 3.13559
34 2 5.84792 5.19024 5.57168
35 2 3.94891 4.2096 6.28213
36 2 4.01827 3.88675 8.7213
37 2 7.79417 6.04174 9.71537
38 2 5.92496 2.61234 11.9427
39 2 6.01773 4.67425 13.1185
40 2 4.69899 5.39354 15.3973
41 2 3.2828 4.08993 17.0683
42 2 1.18364 5.49575 17.0542
43 2 3.7005 0 0
44 2 7.401 0 2.35169
45 2 7.401 2.13648 3.13559
46 2 7.61656 1.89997 5.53147
47 2 5.77889 0.930982 6.44532
48 2 5.86666 0.683487 8.72508
49 2 9.62845 2.79738 9.45993
50 2 7.89275 -0.509793 12.0108
51 2 7.88501 1.60975 12.7713
52 2 7.96462 1.59825 15.1796
53 2 5.53026 0.686546 15.221
54 2 4.24801 1.54578 17.4294
55 2 5.55075 3.20473 0
56 2 9.25125 3.20473 2.35169
57 2 9.25125 5.34121 3.13559
58 2 9.42335 5.18967 5.4099
59 2 7.68402 4.12042 6.44757
60 2 7.82842 3.91573 8.68079
61 2 11.5069 6.00933 9.53897
62 2 9.65077 2.72766 11.7611
63 2 9.7319 4.74611 12.6512
64 2 9.70402 4.59549 14.9829
65 2 7.35501 4.14903 15.2809
66 2 6.23912 4.7103 17.232
67 3 -59.6862 78.711 23.7416
68 3 -70.3635 78.5636 24.7418
69 3 -57.3646 77.1162 23.343
70 3 -64.5053 82.4476 23.7285
ITEM: TIMESTEP
900
ITEM: NUMBER OF ATOMS
70
ITEM: BOX BOUNDS xy xz yz pp pp ff
-3.7004999999999999e+00 7.4009999999999998e+00 -3.7004999999999999e+00
0.0000000000000000e+00 6.4094540134086300e+00 0.0000000000000000e+00
0.0000000000000000e+00 4.0329638543820927e+01 0.0000000000000000e+00
ITEM: ATOMS id type xu yu zu
1 1 25.1135 15.157 20.4872
2 1 26.3828 15.8835 20.4701
3 1 23.9321 17.2898 20.4479
4 1 25.0943 18.0228 20.5065
5 1 22.6891 19.3962 20.4747
6 1 23.9013 20.1162 20.5452
7 1 27.588 15.1429 20.4408
8 1 28.8098 15.9255 20.3812
9 1 26.3317 17.359 20.3572
10 1 27.5957 18.0505 20.2817
11 1 25.1624 19.5315 20.4974
12 1 26.4147 20.1988 20.2918
13 1 30.1186 15.1907 20.3862
14 1 31.3622 15.8772 20.4378
15 1 28.8306 17.2794 20.2983
16 1 30.0561 17.9923 20.3756
17 1 27.6386 19.4059 20.2391
18 1 28.82 20.1113 20.3249
19 2 0 0 0
20 2 3.7005 0 2.35169
21 2 3.7005 2.13648 3.13559
22 2 3.86763 2.05722 5.56728
23 2 2.20831 0.729828 6.44196
24 2 2.2542 0.525848 8.76492
25 2 5.90411 2.76813 9.58597
26 2 4.05131 -0.558007 12.0999
27 2 4.09274 1.44796 13.1323
28 2 2.88633 2.14611 15.5616
29 2 1.77895 0.671707 17.1494
30 2 -0.852034 2.39203 16.9374
31 2 1.85025 3.20473 0
32 2 5.55075 3.20473 2.35169
33 2 5.55075 5.34121 3.13559
34 2 5.7854 5.06931 5.46689
35 2 3.89986 4.16039 6.47617
36 2 4.10461 3.79643 8.80817
37 2 7.84672 6.01541 9.62081
38 2 5.90348 2.48076 12.0638
39 2 6.13362 4.64903 13.179
40 2 4.87024 5.2805 15.4257
41 2 3.60161 4.19955 17.1551
42 2 1.26563 5.52071 17.2017
43 2 3.7005 0 0
44 2 7.401 0 2.35169
45 2 7.401 2.13648 3.13559
46 2 7.59764 1.96615 5.53149
47 2 5.70147 0.798089 6.24722
48 2 6.08556 0.679859 8.59337
49 2 9.59814 2.68615 9.55956
50 2 8.02139 -0.740714 11.9591
51 2 7.85252 1.47795 12.7857
52 2 7.88371 1.39713 15.348
53 2 5.74316 0.612352 15.1705
54 2 4.22625 1.51662 17.3036
55 2 5.55075 3.20473 0
56 2 9.25125 3.20473 2.35169
57 2 9.25125 5.34121 3.13559
58 2 9.48359 5.12662 5.44474
59 2 7.67514 4.00842 6.43144
60 2 7.66221 3.89534 8.98367
61 2 11.463 5.9094 9.69798
62 2 9.81152 2.5288 11.8441
63 2 9.67445 4.74132 12.5772
64 2 9.79023 4.49798 15.0458
65 2 7.41402 3.95442 15.167
66 2 6.37852 4.8098 17.1579
67 3 -59.8995 78.7292 23.9627
68 3 -70.068 78.9066 24.7478
69 3 -57.586 77.1912 23.2386
70 3 -65.0557 82.8452 23.7996
ITEM: TIMESTEP
1000
ITEM: NUMBER OF ATOMS
70
ITEM: BOX BOUNDS xy xz yz pp pp ff
-3.7004999999999999e+00 7.4009999999999998e+00 -3.7004999999999999e+00
0.0000000000000000e+00 6.4094540134086300e+00 0.0000000000000000e+00
0.0000000000000000e+00 4.0329638543820927e+01 0.0000000000000000e+00
ITEM: ATOMS id type xu yu zu
1 1 25.183 15.2389 20.3933
2 1 26.443 15.9132 20.4019
3 1 23.9973 17.2815 20.2878
4 1 25.207 17.9771 20.2913
5 1 22.7747 19.4577 20.3547
6 1 23.9827 20.1618 20.4624
7 1 27.6497 15.2234 20.5408
8 1 28.9177 15.9502 20.4914
9 1 26.4353 17.3853 20.289
10 1 27.6786 18.1004 20.2579
11 1 25.1834 19.4519 20.3834
12 1 26.4528 20.1274 20.4291
13 1 30.1361 15.1421 20.4437
14 1 31.3755 15.8688 20.4559
15 1 28.8924 17.3405 20.3728
16 1 30.1502 18.0774 20.5025
17 1 27.745 19.4336 20.447
18 1 28.9508 20.1975 20.4385
19 2 0 0 0
20 2 3.7005 0 2.35169
21 2 3.7005 2.13648 3.13559
22 2 3.81105 1.90142 5.29908
23 2 2.11498 0.716719 6.26654
24 2 2.20436 0.489472 8.72027
25 2 5.86961 2.59383 9.83678
26 2 4.02159 -0.656226 12.0289
27 2 4.22031 1.33815 13.5101
28 2 2.8158 2.2119 15.3964
29 2 1.68991 0.674412 17.2473
30 2 -0.667641 2.3407 17.0601
31 2 1.85025 3.20473 0
32 2 5.55075 3.20473 2.35169
33 2 5.55075 5.34121 3.13559
34 2 5.73526 4.99555 5.47567
35 2 3.9358 3.98394 6.53657
36 2 4.0169 3.77384 8.80032
37 2 7.94677 6.03014 9.61808
38 2 5.95139 2.54975 12.1909
39 2 6.08257 4.50331 13.2441
40 2 5.01785 5.3186 15.3961
41 2 3.80786 4.12077 17.1345
42 2 1.46657 5.51869 17.1351
43 2 3.7005 0 0
44 2 7.401 0 2.35169
45 2 7.401 2.13648 3.13559
46 2 7.68004 1.84499 5.50363
47 2 5.76114 0.844657 6.19646
48 2 6.03908 0.612052 8.64878
49 2 9.58651 2.62307 9.64879
50 2 8.00235 -0.81159 11.9802
51 2 7.88956 1.31859 12.8293
52 2 8.02783 1.23665 15.1252
53 2 5.58956 0.549484 15.3417
54 2 4.3289 1.53504 17.1041
55 2 5.55075 3.20473 0
56 2 9.25125 3.20473 2.35169
57 2 9.25125 5.34121 3.13559
58 2 9.42574 5.03092 5.62422
59 2 7.58884 3.95953 6.51132
60 2 7.75773 3.80572 8.86955
61 2 11.523 5.83928 9.64227
62 2 9.78377 2.34072 12.105
63 2 9.77866 4.59752 12.7568
64 2 9.93519 4.6263 15.3076
65 2 7.42954 3.73187 15.2346
66 2 6.37452 4.76513 17.1647
67 3 -59.8317 78.8586 24.0136
68 3 -70.0445 79.288 24.6316
69 3 -57.7104 77.2977 23.4363
70 3 -65.7628 83.1118 23.7179
ITEM: TIMESTEP
1100
ITEM: NUMBER OF ATOMS
70
ITEM: BOX BOUNDS xy xz yz pp pp ff
-3.7004999999999999e+00 7.4009999999999998e+00 -3.7004999999999999e+00
0.0000000000000000e+00 6.4094540134086300e+00 0.0000000000000000e+00
0.0000000000000000e+00 4.0329638543820927e+01 0.0000000000000000e+00
ITEM: ATOMS id type xu yu zu
1 1 25.2874 15.1947 20.3689
2 1 26.5016 15.8813 20.3392
3 1 24.0703 17.4336 20.3793
4 1 25.392 18.0456 20.3365
5 1 22.7555 19.4951 20.4211
6 1 24.0512 20.1572 20.2588
7 1 27.7474 15.2056 20.2739
8 1 29.0413 15.9298 20.4572
9 1 26.5641 17.3018 20.4353
10 1 27.7583 18.021 20.6474
11 1 25.2773 19.47 20.2973
12 1 26.4652 20.2123 20.4954
13 1 30.2624 15.2418 20.4888
14 1 31.4916 15.9822 20.3584
15 1 28.9994 17.3685 20.52
16 1 30.2046 18.1304 20.307
17 1 27.7035 19.4591 20.4168
18 1 28.9388 20.219 20.4422
19 2 0 0 0
20 2 3.7005 0 2.35169
21 2 3.7005 2.13648 3.13559
22 2 3.92018 1.75343 5.56374
23 2 1.98094 0.695314 6.31958
24 2 2.30359 0.575288 8.60788
25 2 5.88669 2.58709 9.85866
26 2 4.19221 -0.749861 12.1839
27 2 4.3709 1.24268 13.5438
28 2 2.91793 2.21406 15.2412
29 2 1.80197 0.739508 17.1224
30 2 -0.373643 1.96539 17.1558
31 2 1.85025 3.20473 0
32 2 5.55075 3.20473 2.35169
33 2 5.55075 5.34121 3.13559
34 2 5.70624 4.97505 5.59294
35 2 3.89167 3.77143 6.29416
36 2 4.0162 3.58015 8.883
37 2 7.78299 5.87717 9.67796
38 2 5.97666 2.3588 12.407
39 2 6.07607 4.52819 13.2902
40 2 5.06111 5.40035 15.3269
41 2 3.93134 3.94745 17.1778
42 2 1.436 5.41386 17.1875
43 2 3.7005 0 0
44 2 7.401 0 2.35169
45 2 7.401 2.13648 3.13559
46 2 7.6043 1.82518 5.44248
47 2 5.80364 0.81645 6.44225
48 2 5.92111 0.560337 8.77642
49 2 9.61778 2.5472 9.75042
50 2 7.88624 -0.857273 12.005
51 2 7.85332 1.25394 12.8436
52 2 8.07248 1.23191 15.102
53 2 5.54295 0.680263 15.4941
54 2 4.31571 1.58647 17.1438
55 2 5.55075 3.20473 0
56 2 9.25125 3.20473 2.35169
57 2 9.25125 5.34121 3.13559
58 2 9.38132 5.00608 5.63184
59 2 7.52963 3.89822 6.5051
60 2 7.79041 3.68846 8.79909
61 2 11.5484 5.83018 9.49801
62 2 9.79404 2.3059 12.2097
63 2 9.74084 4.47967 13.0418
64 2 9.99664 4.71705 15.2034
65 2 7.54765 3.68289 15.3327
66 2 6.417 4.6366 17.3007
67 3 -59.7501 79.1997 23.953
68 3 -70.2395 79.8004 24.4336
69 3 -57.7159 77.3124 23.7408
70 3 -66.405 83.1357 23.5095
ITEM: TIMESTEP
1200
ITEM: NUMBER OF ATOMS
70
ITEM: BOX BOUNDS xy xz yz pp pp ff
-3.7004999999999999e+00 7.4009999999999998e+00 -3.7004999999999999e+00
0.0000000000000000e+00 6.4094540134086300e+00 0.0000000000000000e+00
0.0000000000000000e+00 4.0329638543820927e+01 0.0000000000000000e+00
ITEM: ATOMS id type xu yu zu
1 1 25.4541 15.2034 20.4116
2 1 26.513 16.0361 20.4679
3 1 24.083 17.3234 20.4929
4 1 25.3145 18.1401 20.5229
5 1 22.9489 19.4425 20.2899
6 1 24.1352 20.2239 20.3285
7 1 27.7842 15.2398 20.3319
8 1 29.0288 15.9471 20.3004
9 1 26.548 17.4456 20.4757
10 1 27.8117 18.0856 20.4508
11 1 25.407 19.5623 20.4644
12 1 26.6588 20.2142 20.3397
13 1 30.2722 15.2266 20.2707
14 1 31.5372 15.8865 20.3915
15 1 29.0601 17.4025 20.4455
16 1 30.3007 18.0225 20.4396
17 1 27.8759 19.5467 20.4913
18 1 29.1353 20.2113 20.3281
19 2 0 0 0
20 2 3.7005 0 2.35169
21 2 3.7005 2.13648 3.13559
22 2 3.91849 1.56714 5.64836
23 2 1.99717 0.684367 6.44341
24 2 2.27563 0.496662 8.75368
25 2 5.97048 2.64033 9.85102
26 2 4.23683 -0.851065 12.4148
27 2 4.28229 1.17197 13.3011
28 2 3.12434 2.22468 15.2448
29 2 2.1156 0.737824 16.9581
30 2 -0.274893 1.73451 17.2147
31 2 1.85025 3.20473 0
32 2 5.55075 3.20473 2.35169
33 2 5.55075 5.34121 3.13559
34 2 5.6477 4.97529 5.51382
35 2 3.78485 3.85212 6.43182
36 2 4.10832 3.58384 8.72526
37 2 7.64162 5.62299 9.8101
38 2 5.99313 2.37606 12.3259
39 2 6.13289 4.59595 13.2776
40 2 5.04899 5.29638 15.394
41 2 3.97298 3.89403 17.1272
42 2 1.2921 5.24277 17.223
43 2 3.7005 0 0
44 2 7.401 0 2.35169
45 2 7.401 2.13648 3.13559
46 2 7.43346 1.87817 5.51613
47 2 5.82615 0.557834 6.6751
48 2 5.8495 0.432144 9.01139
49 2 9.61981 2.551 9.81291
50 2 7.85703 -0.969532 11.9677
51 2 7.91928 1.1992 12.8775
52 2 8.03643 1.37471 15.2158
53 2 5.78305 0.71415 15.5648
54 2 4.17158 1.53926 17.3938
55 2 5.55075 3.20473 0
56 2 9.25125 3.20473 2.35169
57 2 9.25125 5.34121 3.13559
58 2 9.38701 5.05084 5.47493
59 2 7.59073 3.87711 6.39165
60 2 7.70976 3.60298 8.94664
61 2 11.5103 5.7467 9.53993
62 2 9.84658 2.31264 12.1702
63 2 9.74231 4.45737 12.9342
64 2 10.0343 4.67019 15.3059
65 2 7.73019 3.83727 15.4672
66 2 6.43613 4.44083 17.3496
67 3 -60.1083 79.6982 23.8183
68 3 -70.2556 79.8645 23.8784
69 3 -57.9605 77.5278 24.1229
70 3 -66.5373 83.254 23.3862
ITEM: TIMESTEP
1300
ITEM: NUMBER OF ATOMS
70
ITEM: BOX BOUNDS xy xz yz pp pp ff
-3.7004999999999999e+00 7.4009999999999998e+00 -3.7004999999999999e+00
0.0000000000000000e+00 6.4094540134086300e+00 0.0000000000000000e+00
0.0000000000000000e+00 4.0329638543820927e+01 0.0000000000000000e+00
ITEM: ATOMS id type xu yu zu
1 1 25.4179 15.2932 20.3777
2 1 26.6646 15.9466 20.3865
3 1 24.1846 17.432 20.4086
4 1 25.4788 18.0847 20.5132
5 1 22.9307 19.5757 20.4924