ITEM: TIMESTEP
0
ITEM: NUMBER OF ATOMS
69
ITEM: BOX BOUNDS xy xz yz pp pp ff
-3.7004999999999999e+00 7.4009999999999998e+00 -3.7004999999999999e+00
0.0000000000000000e+00 6.4094540134086300e+00 0.0000000000000000e+00
0.0000000000000000e+00 4.0329638543820927e+01 0.0000000000000000e+00
ITEM: ATOMS id type xu yu zu
1 1 -0.0439224 -0.120381 19.9943
2 1 1.23684 0.559706 20.1535
3 1 -1.07733 2.04626 20.5618
4 1 0.0887374 2.72525 20.1256
5 1 -2.59627 4.24195 20.4722
6 1 -1.37427 4.83367 20.6021
7 1 2.32237 -0.123423 20.7735
8 1 3.68985 0.52179 20.6578
9 1 1.04701 1.82384 19.7035
10 1 -0.0675017 4.12715 20.0559
11 1 1.28956 4.98801 20.0023
12 1 4.92749 -0.0053338 20.2827
13 1 6.14383 0.689001 20.223
14 1 3.97715 1.86245 20.8718
15 1 5.0164 2.71796 20.7691
16 1 2.51227 4.45265 19.5792
17 1 3.65824 4.89326 19.955
18 2 0 0 0
19 2 3.7005 0 2.35169
20 2 3.7005 2.13648 3.13559
21 2 3.70488 2.09847 5.4616
22 2 1.8593 1.06495 6.33346
23 2 1.86795 1.02782 8.66832
24 2 5.54318 3.21131 9.53119
25 2 3.73949 -0.0153028 11.8599
26 2 3.70766 2.14027 12.6893
27 2 3.73124 2.12039 15.0356
28 2 1.76141 1.06614 15.9485
29 2 2.41713 1.28432 18.2145
30 2 1.85025 3.20473 0
31 2 5.55075 3.20473 2.35169
32 2 5.55075 5.34121 3.13559
33 2 5.56361 5.33581 5.51298
34 2 3.72824 4.2307 6.29947
35 2 3.65265 4.22835 8.64889
36 2 7.43562 6.39506 9.51652
37 2 5.50284 3.21395 11.8468
38 2 5.54472 5.36988 12.6871
39 2 5.47053 5.3497 15.0422
40 2 3.69949 4.26092 15.9579
41 2 3.98761 3.57614 18.3973
42 2 3.7005 0 0
43 2 7.401 0 2.35169
44 2 7.401 2.13648 3.13559
45 2 7.40974 2.16033 5.48916
46 2 5.57231 1.03745 6.31093
47 2 5.54281 1.096 8.6377
48 2 9.21331 3.13379 9.56684
49 2 7.40216 0.0186069 11.8542
50 2 7.33955 2.13562 12.7053
51 2 7.34607 2.19542 15.072
52 2 5.55518 1.10889 16.0046
53 2 4.68029 1.53561 18.2115
54 2 5.55075 3.20473 0
55 2 9.25125 3.20473 2.35169
56 2 9.25125 5.34121 3.13559
57 2 9.30716 5.31196 5.49522
58 2 7.41702 4.26989 6.35677
59 2 7.41258 4.26749 8.70261
60 2 11.0846 6.40203 9.49307
61 2 9.22101 3.20784 11.8982
62 2 9.2878 5.33079 12.7321
63 2 9.22921 5.29987 15.0924
64 2 7.34606 4.35386 15.9569
65 2 7.25539 5.34659 18.1675
66 3 1.38286 2.11565 23.946
67 3 -1.45574 5.23252 23.9499
68 3 4.28497 1.46715 23.2256
69 3 3.45372 4.01844 23.916
ITEM: TIMESTEP
100
ITEM: NUMBER OF ATOMS
69
ITEM: BOX BOUNDS xy xz yz pp pp ff
-3.7004999999999999e+00 7.4009999999999998e+00 -3.7004999999999999e+00
0.0000000000000000e+00 6.4094540134086300e+00 0.0000000000000000e+00
0.0000000000000000e+00 4.0329638543820927e+01 0.0000000000000000e+00
ITEM: ATOMS id type xu yu zu
1 1 0.0893648 -0.116938 20.1372
2 1 1.31316 0.65079 19.9352
3 1 -1.14039 1.96327 20.2536
4 1 0.0557436 2.72846 20.0629
5 1 -2.54204 4.16345 20.3743
6 1 -1.29817 4.87294 20.5389
7 1 2.37315 -0.158056 20.5924
8 1 3.78063 0.452675 20.7884
9 1 1.19702 2.02853 19.8615
10 1 0.087874 4.22014 20.117
11 1 1.25984 4.95165 20.0538
12 1 5.12913 -0.244993 20.6679
13 1 6.2726 0.586306 20.5102
14 1 4.025 1.79765 20.8627
15 1 5.00836 2.69038 20.6208
16 1 2.46851 4.45978 19.5368
17 1 3.74202 4.92401 19.8697
18 2 0 0 0
19 2 3.7005 0 2.35169
20 2 3.7005 2.13648 3.13559
21 2 3.71501 2.12774 5.51306
22 2 1.83048 1.03601 6.33407
23 2 1.85726 1.03196 8.68496
24 2 5.53356 3.20486 9.51766
25 2 3.73641 -0.0129438 11.8868
26 2 3.69482 2.11941 12.7008
27 2 3.67426 2.0957 15.0233
28 2 1.74948 1.11141 15.9475
29 2 2.23981 1.23496 18.159
30 2 1.85025 3.20473 0
31 2 5.55075 3.20473 2.35169
32 2 5.55075 5.34121 3.13559
33 2 5.55618 5.32736 5.45953
34 2 3.70122 4.24476 6.35806
35 2 3.6777 4.26561 8.70751
36 2 7.40503 6.40063 9.54756
37 2 5.56035 3.23783 11.8522
38 2 5.57673 5.34878 12.7008
39 2 5.51075 5.37491 15.0643
40 2 3.72448 4.24662 16.0383
41 2 3.82279 3.74048 18.3323
42 2 3.7005 0 0
43 2 7.401 0 2.35169
44 2 7.401 2.13648 3.13559
45 2 7.41952 2.12913 5.49016
46 2 5.56296 1.06482 6.3146
47 2 5.56045 1.06009 8.67283
48 2 9.24778 3.19742 9.52526
49 2 7.39285 0.00202832 11.8856
50 2 7.40093 2.18046 12.7738
51 2 7.32509 2.24546 15.1844
52 2 5.51616 1.05248 16.1009
53 2 4.46012 1.19121 18.1106
54 2 5.55075 3.20473 0
55 2 9.25125 3.20473 2.35169
56 2 9.25125 5.34121 3.13559
57 2 9.22702 5.34106 5.46811
58 2 7.42236 4.27979 6.33831
59 2 7.39161 4.26493 8.6767
60 2 11.0807 6.36899 9.53381
61 2 9.24082 3.1822 11.8784
62 2 9.25693 5.31924 12.8129
63 2 9.18961 5.34283 15.1989
64 2 7.30446 4.41524 16.0868
65 2 7.45553 5.55903 18.2405
66 3 1.25544 2.10096 23.8645
67 3 -1.50934 5.21865 24.0404
68 3 4.38775 1.43957 23.6403
69 3 3.38657 4.11446 23.863
ITEM: TIMESTEP
200
ITEM: NUMBER OF ATOMS
69
ITEM: BOX BOUNDS xy xz yz pp pp ff
-3.7004999999999999e+00 7.4009999999999998e+00 -3.7004999999999999e+00
0.0000000000000000e+00 6.4094540134086300e+00 0.0000000000000000e+00
0.0000000000000000e+00 4.0329638543820927e+01 0.0000000000000000e+00
ITEM: ATOMS id type xu yu zu
1 1 0.126522 -0.196309 20.3299
2 1 1.31257 0.531157 20.1641
3 1 -1.05955 2.00753 20.4458
4 1 0.0253657 2.68505 20.0497
5 1 -2.39117 4.23187 20.02
6 1 -1.23802 4.79116 20.5538
7 1 2.49393 -0.18941 20.5775
8 1 3.82788 0.546251 20.7667
9 1 1.03758 1.82123 19.7772
10 1 -0.0157244 4.20905 20.0588
11 1 1.30119 4.89992 20.1123
12 1 5.14173 -0.215943 20.6117
13 1 6.2817 0.595829 20.4806
14 1 3.96711 1.88561 20.8063
15 1 5.04964 2.69914 20.5905
16 1 2.43677 4.38393 19.5622
17 1 3.74852 4.87898 19.8764
18 2 0 0 0
19 2 3.7005 0 2.35169
20 2 3.7005 2.13648 3.13559
21 2 3.67594 2.1359 5.50935
22 2 1.86709 1.03898 6.36384
23 2 1.81328 1.06643 8.70786
24 2 5.56136 3.1786 9.51597
25 2 3.72241 -0.0257179 11.8864
26 2 3.72891 2.14161 12.6465
27 2 3.64649 2.16197 15.0406
28 2 1.69169 1.16406 15.894
29 2 2.15815 1.36625 18.2677
30 2 1.85025 3.20473 0
31 2 5.55075 3.20473 2.35169
32 2 5.55075 5.34121 3.13559
33 2 5.52913 5.30044 5.49345
34 2 3.66464 4.31237 6.38223
35 2 3.71851 4.27182 8.70543
36 2 7.39939 6.39597 9.54476
37 2 5.59897 3.1978 11.8783
38 2 5.54541 5.34702 12.766
39 2 5.52858 5.40109 15.1366
40 2 3.69381 4.305 16.0179
41 2 3.67438 3.5149 18.3672
42 2 3.7005 0 0
43 2 7.401 0 2.35169
44 2 7.401 2.13648 3.13559
45 2 7.40509 2.11921 5.48569
46 2 5.55273 1.07977 6.37619
47 2 5.55186 1.02897 8.70743
48 2 9.23822 3.20796 9.51674
49 2 7.3799 0.0148627 11.9669
50 2 7.39945 2.14964 12.8393
51 2 7.26744 2.2927 15.272
52 2 5.48889 1.0715 16.027
53 2 4.50696 1.24356 18.0336
54 2 5.55075 3.20473 0
55 2 9.25125 3.20473 2.35169
56 2 9.25125 5.34121 3.13559
57 2 9.2477 5.34836 5.49522
58 2 7.37605 4.25753 6.32808
59 2 7.38815 4.26654 8.66905
60 2 11.1099 6.41922 9.6003
61 2 9.25822 3.21886 11.8677
62 2 9.2391 5.32282 12.8468
63 2 9.23104 5.36022 15.2782
64 2 7.36675 4.43196 16.2602
65 2 7.6456 5.44206 18.3375
66 3 1.23448 1.92942 23.632
67 3 -1.36236 5.41523 24.0029
68 3 4.36299 1.34397 24.1565
69 3 3.17142 4.23619 23.6583
ITEM: TIMESTEP
300
ITEM: NUMBER OF ATOMS
69
ITEM: BOX BOUNDS xy xz yz pp pp ff
-3.7004999999999999e+00 7.4009999999999998e+00 -3.7004999999999999e+00
0.0000000000000000e+00 6.4094540134086300e+00 0.0000000000000000e+00
0.0000000000000000e+00 4.0329638543820927e+01 0.0000000000000000e+00
ITEM: ATOMS id type xu yu zu
1 1 0.0241185 -0.214371 20.2904
2 1 1.24315 0.471625 20.3104
3 1 -1.10106 1.9535 20.4662
4 1 0.124914 2.63494 20.1769
5 1 -2.41456 4.20361 19.8386
6 1 -1.31702 4.89368 20.3985
7 1 2.41788 -0.162218 20.5403
8 1 3.70176 0.56064 20.7144
9 1 1.17642 1.7835 20.0256
10 1 0.0881443 4.16935 20.101
11 1 1.29411 4.89038 20.0712
12 1 4.99642 -0.190818 20.5957
13 1 6.24101 0.53534 20.5932
14 1 3.9237 1.94604 20.7592
15 1 5.04097 2.63981 20.5252
16 1 2.441 4.34152 19.6676
17 1 3.68014 4.89564 19.709
18 2 0 0 0
19 2 3.7005 0 2.35169
20 2 3.7005 2.13648 3.13559
21 2 3.68596 2.16827 5.50402
22 2 1.84581 1.05373 6.37559
23 2 1.85295 1.08426 8.72584
24 2 5.58201 3.17127 9.56572
25 2 3.6793 -0.0333014 11.9027
26 2 3.71868 2.15718 12.6558
27 2 3.62063 2.24965 14.9641
28 2 1.72363 1.16765 16.0041
29 2 2.3628 1.30533 18.2584
30 2 1.85025 3.20473 0
31 2 5.55075 3.20473 2.35169
32 2 5.55075 5.34121 3.13559
33 2 5.51858 5.3411 5.52217
34 2 3.66729 4.27129 6.36197
35 2 3.71443 4.29095 8.72972
36 2 7.36504 6.38979 9.54421
37 2 5.60436 3.21091 11.8965
38 2 5.5406 5.33802 12.8412
39 2 5.57752 5.40203 15.2651
40 2 3.71187 4.3042 16.0447
41 2 3.64797 3.40922 18.3453
42 2 3.7005 0 0
43 2 7.401 0 2.35169
44 2 7.401 2.13648 3.13559
45 2 7.40168 2.10767 5.5092
46 2 5.51957 1.07365 6.38259
47 2 5.5481 1.03983 8.738
48 2 9.24667 3.22484 9.55292
49 2 7.37926 0.011218 12.0309
50 2 7.41848 2.16646 12.8776
51 2 7.27144 2.33645 15.2302
52 2 5.43778 1.18609 15.8897
53 2 4.62517 1.25522 18.098
54 2 5.55075 3.20473 0
55 2 9.25125 3.20473 2.35169
56 2 9.25125 5.34121 3.13559
57 2 9.21921 5.36724 5.52166
58 2 7.38435 4.24418 6.33518
59 2 7.39806 4.27128 8.67446
60 2 11.1035 6.41226 9.65701
61 2 9.22695 3.23546 11.906
62 2 9.22902 5.33692 12.8528
63 2 9.20197 5.34076 15.2295
64 2 7.41626 4.37734 16.2623
65 2 7.60054 5.41734 18.2293
66 3 1.28137 1.8314 23.2864
67 3 -1.20081 5.5092 23.8716
68 3 4.25926 1.40953 24.5181
69 3 2.97721 4.2262 23.3417
ITEM: TIMESTEP
400
ITEM: NUMBER OF ATOMS
69
ITEM: BOX BOUNDS xy xz yz pp pp ff
-3.7004999999999999e+00 7.4009999999999998e+00 -3.7004999999999999e+00
0.0000000000000000e+00 6.4094540134086300e+00 0.0000000000000000e+00
0.0000000000000000e+00 4.0329638543820927e+01 0.0000000000000000e+00
ITEM: ATOMS id type xu yu zu
1 1 0.0158332 -0.169968 20.2934
2 1 1.27211 0.491001 20.2212
3 1 -1.1653 1.93152 20.4938
4 1 0.0797433 2.60832 20.2338
5 1 -2.51764 4.13742 20.0118
6 1 -1.27815 4.78441 20.4257
7 1 2.37072 -0.272588 20.6227
8 1 3.74719 0.480667 20.7916
9 1 1.18655 1.84465 20.034
10 1 0.0034387 4.19226 19.9964
11 1 1.27078 4.93305 20.0883
12 1 5.01031 -0.203327 20.6017
13 1 6.25984 0.550016 20.5109
14 1 3.9338 1.86114 20.7392
15 1 4.99466 2.65816 20.5412
16 1 2.35781 4.47217 19.4331
17 1 3.6425 4.92099 19.7446
18 2 0 0 0
19 2 3.7005 0 2.35169
20 2 3.7005 2.13648 3.13559
21 2 3.68667 2.1307 5.49989
22 2 1.83165 1.09085 6.38644
23 2 1.83443 1.07609 8.74646
24 2 5.5561 3.22042 9.58572
25 2 3.65247 -0.00774542 11.929
26 2 3.66684 2.15516 12.6352
27 2 3.55722 2.25501 14.9459
28 2 1.78549 1.16998 16.1234
29 2 2.42286 1.16759 18.3754
30 2 1.85025 3.20473 0
31 2 5.55075 3.20473 2.35169
32 2 5.55075 5.34121 3.13559
33 2 5.54088 5.35553 5.49685
34 2 3.68151 4.28046 6.38731
35 2 3.71418 4.28587 8.75571
36 2 7.38761 6.39268 9.58535
37 2 5.57776 3.2531 11.9419
38 2 5.55302 5.34543 12.9349
39 2 5.58052 5.40042 15.3191
40 2 3.7035 4.30275 16.0979
41 2 3.63392 3.52595 18.2959
42 2 3.7005 0 0
43 2 7.401 0 2.35169
44 2 7.401 2.13648 3.13559
45 2 7.37042 2.11038 5.51206
46 2 5.52129 1.08014 6.38475
47 2 5.54875 1.05274 8.75653
48 2 9.26326 3.23779 9.5941
49 2 7.40405 0.013185 12.0415
50 2 7.40417 2.18846 12.833
51 2 7.38793 2.22408 15.2028
52 2 5.42142 1.16592 15.8907
53 2 4.91592 1.06601 18.0843
54 2 5.55075 3.20473 0
55 2 9.25125 3.20473 2.35169
56 2 9.25125 5.34121 3.13559
57 2 9.21 5.34119 5.49387
58 2 7.38275 4.26957 6.36006
59 2 7.40074 4.2567 8.70364
60 2 11.106 6.40697 9.65706
61 2 9.21704 3.23482 11.9238
62 2 9.20284 5.36543 12.8165
63 2 9.22569 5.42905 15.1705
64 2 7.41627 4.37752 16.1044
65 2 7.43988 5.54712 18.2456
66 3 1.38188 1.85008 23.0454
67 3 -1.27107 5.52258 23.6621
68 3 4.02245 1.60855 24.5884
69 3 3.1085 4.0713 23.0866
ITEM: TIMESTEP
500
ITEM: NUMBER OF ATOMS
69
ITEM: BOX BOUNDS xy xz yz pp pp ff
-3.7004999999999999e+00 7.4009999999999998e+00 -3.7004999999999999e+00
0.0000000000000000e+00 6.4094540134086300e+00 0.0000000000000000e+00
0.0000000000000000e+00 4.0329638543820927e+01 0.0000000000000000e+00
ITEM: ATOMS id type xu yu zu
1 1 0.0184562 -0.208848 20.2684
2 1 1.21228 0.478854 20.1619
3 1 -1.1397 1.95834 20.4776
4 1 0.0307394 2.67261 20.063
5 1 -2.48419 4.08822 20.0187
6 1 -1.35298 4.76144 20.6037
7 1 2.41271 -0.259493 20.6579
8 1 3.78013 0.430627 20.8618
9 1 1.05411 1.79866 19.7943
10 1 -0.00336003 4.12954 20.0671
11 1 1.17805 4.92433 19.8619
12 1 5.04248 -0.224738 20.5452
13 1 6.24542 0.496965 20.6171
14 1 3.89111 1.82583 20.9223
15 1 5.0259 2.57176 20.5914
16 1 2.37371 4.35509 19.4959
17 1 3.67611 4.88144 19.7753
18 2 0 0 0
19 2 3.7005 0 2.35169
20 2 3.7005 2.13648 3.13559
21 2 3.67642 2.13949 5.52625
22 2 1.82212 1.07914 6.38933
23 2 1.82868 1.07166 8.75938
24 2 5.54671 3.23056 9.6092
25 2 3.65203 0.0117346 11.9436
26 2 3.6664 2.18435 12.6701
27 2 3.59577 2.20689 15.058
28 2 1.78549 1.09944 16.1356
29 2 2.40364 1.27061 18.4269
30 2 1.85025 3.20473 0
31 2 5.55075 3.20473 2.35169
32 2 5.55075 5.34121 3.13559
33 2 5.5362 5.3591 5.50966
34 2 3.69889 4.29757 6.38603
35 2 3.70065 4.2965 8.73779
36 2 7.40096 6.40255 9.60032
37 2 5.51417 3.2711 11.9676
38 2 5.53428 5.38743 12.9399
39 2 5.49297 5.41504 15.2547
40 2 3.66766 4.34016 16.0158
41 2 3.64219 3.47994 18.3861
42 2 3.7005 0 0
43 2 7.401 0 2.35169
44 2 7.401 2.13648 3.13559
45 2 7.36122 2.16398 5.50174
46 2 5.5362 1.03688 6.39845
47 2 5.55249 1.08936 8.75872
48 2 9.24071 3.19919 9.57414
49 2 7.41271 0.0261942 11.9861
50 2 7.36359 2.15461 12.8092
51 2 7.3987 2.16905 15.2288
52 2 5.5583 1.17631 15.8221
53 2 5.13519 1.14926 17.9976
54 2 5.55075 3.20473 0
55 2 9.25125 3.20473 2.35169
56 2 9.25125 5.34121 3.13559
57 2 9.262 5.32731 5.50777
58 2 7.36737 4.27726 6.37478
59 2 7.40086 4.28028 8.74444
60 2 11.0997 6.42492 9.63648
61 2 9.2012 3.27112 11.8904
62 2 9.22975 5.40513 12.7736
63 2 9.28518 5.43209 15.1106
64 2 7.42086 4.46103 16.0831
65 2 7.34942 5.41597 18.3394
66 3 1.26757 1.79771 22.9929
67 3 -1.38931 5.50899 23.5046
68 3 3.89619 1.6458 24.6627
69 3 3.33645 4.2471 22.7938
ITEM: TIMESTEP
600
ITEM: NUMBER OF ATOMS
69
ITEM: BOX BOUNDS xy xz yz pp pp ff
-3.7004999999999999e+00 7.4009999999999998e+00 -3.7004999999999999e+00
0.0000000000000000e+00 6.4094540134086300e+00 0.0000000000000000e+00
0.0000000000000000e+00 4.0329638543820927e+01 0.0000000000000000e+00
ITEM: ATOMS id type xu yu zu
1 1 -0.0081643 -0.247867 20.3144
2 1 1.16014 0.512962 19.9649
3 1 -1.13717 1.84774 20.5606
4 1 0.0307897 2.57824 20.1582
5 1 -2.4117 4.07651 20.0052
6 1 -1.35153 4.80528 20.5413
7 1 2.36029 -0.194726 20.5395
8 1 3.68012 0.430812 20.6655
9 1 1.04631 1.8434 19.7498
10 1 -0.0208306 4.07667 20.0407
11 1 1.23966 4.78408 20.1305
12 1 5.02622 -0.30666 20.6514
13 1 6.15679 0.41887 20.5858
14 1 3.98887 1.80242 20.8566
15 1 5.08826 2.59321 20.7284
16 1 2.35338 4.33564 19.5269
17 1 3.58353 4.84667 19.7637
18 2 0 0 0
19 2 3.7005 0 2.35169
20 2 3.7005 2.13648 3.13559
21 2 3.70041 2.14412 5.53883
22 2 1.80635 1.08362 6.38196
23 2 1.85999 1.04738 8.7155
24 2 5.53366 3.24299 9.62236
25 2 3.6741 0.055613 11.9364
26 2 3.6139 2.21413 12.7929
27 2 3.65647 2.19587 15.0162
28 2 1.79208 1.09422 16.0847
29 2 2.42107 1.3102 18.3506
30 2 1.85025 3.20473 0
31 2 5.55075 3.20473 2.35169
32 2 5.55075 5.34121 3.13559
33 2 5.53718 5.36481 5.51782
34 2 3.7205 4.25823 6.37722
35 2 3.67307 4.29731 8.72233
36 2 7.39046 6.45059 9.59367
37 2 5.52541 3.27614 11.9568
38 2 5.51965 5.41385 12.778
39 2 5.5418 5.37306 15.1814
40 2 3.6571 4.24002 16.0383
41 2 3.76235 3.31598 18.4576
42 2 3.7005 0 0
43 2 7.401 0 2.35169
44 2 7.401 2.13648 3.13559
45 2 7.37931 2.15378 5.52065
46 2 5.54194 1.06371 6.38687
47 2 5.5411 1.10791 8.74767
48 2 9.22825 3.21085 9.52666
49 2 7.39552 0.0600307 11.8988
50 2 7.3744 2.20697 12.8353
51 2 7.46619 2.41857 15.1958
52 2 5.5789 1.14779 15.7292
53 2 5.08015 1.1454 18.0737
54 2 5.55075 3.20473 0
55 2 9.25125 3.20473 2.35169
56 2 9.25125 5.34121 3.13559
57 2 9.25044 5.32619 5.53005
58 2 7.40101 4.3095 6.39765
59 2 7.3767 4.30442 8.73456
60 2 11.0768 6.43448 9.57568
61 2 9.16871 3.26231 11.8947
62 2 9.25014 5.391 12.7221
63 2 9.21037 5.33692 15.0469
64 2 7.39064 4.43692 16.1678
65 2 7.42492 5.48914 18.267
66 3 1.10426 2.00401 23.139
67 3 -1.35921 5.36138 23.5706
68 3 3.64411 1.75779 24.4982
69 3 3.42069 4.30862 22.8312
ITEM: TIMESTEP
700
ITEM: NUMBER OF ATOMS
69
ITEM: BOX BOUNDS xy xz yz pp pp ff
-3.7004999999999999e+00 7.4009999999999998e+00 -3.7004999999999999e+00
0.0000000000000000e+00 6.4094540134086300e+00 0.0000000000000000e+00
0.0000000000000000e+00 4.0329638543820927e+01 0.0000000000000000e+00
ITEM: ATOMS id type xu yu zu
1 1 -0.0874708 -0.272503 20.1004
2 1 1.11367 0.433219 19.831
3 1 -1.11057 1.82488 20.7488
4 1 0.0888214 2.52217 20.2647
5 1 -2.43412 3.98462 20.0047
6 1 -1.31535 4.77012 20.3985
7 1 2.39056 -0.244173 20.4771
8 1 3.71122 0.368966 20.7632
9 1 1.03392 1.77116 19.7197
10 1 0.136047 4.08354 20.0869
11 1 1.27618 4.83767 20.118
12 1 4.96728 -0.335233 20.7014
13 1 6.20711 0.433811 20.7101
14 1 3.86905 1.82288 20.7717
15 1 4.99843 2.4793 20.6597
16 1 2.39039 4.22427 19.7201
17 1 3.57501 4.82561 19.7072
18 2 0 0 0
19 2 3.7005 0 2.35169
20 2 3.7005 2.13648 3.13559
21 2 3.69883 2.10589 5.47428
22 2 1.8593 1.09034 6.33888
23 2 1.81923 1.09675 8.66428
24 2 5.5101 3.25957 9.57428
25 2 3.6957 0.11427 11.8894
26 2 3.63466 2.2358 12.6923
27 2 3.62551 2.15469 15.0263
28 2 1.81764 1.17199 15.9256
29 2 2.43464 1.22635 18.224
30 2 1.85025 3.20473 0
31 2 5.55075 3.20473 2.35169
32 2 5.55075 5.34121 3.13559
33 2 5.56461 5.34991 5.49539
34 2 3.70046 4.26308 6.36883
35 2 3.67516 4.28587 8.70901
36 2 7.40039 6.46208 9.56778
37 2 5.51528 3.25702 11.9267
38 2 5.53022 5.41646 12.6915
39 2 5.52382 5.35076 15.1316
40 2 3.75683 4.20314 16.1022
41 2 3.7945 3.35927 18.4115
42 2 3.7005 0 0
43 2 7.401 0 2.35169
44 2 7.401 2.13648 3.13559
45 2 7.39475 2.1604 5.51635
46 2 5.55287 1.10497 6.37318
47 2 5.52044 1.12977 8.70233
48 2 9.20192 3.23034 9.52861
49 2 7.35747 0.133422 11.8726
50 2 7.37101 2.26899 12.8085
51 2 7.48005 2.37108 15.1627
52 2 5.58597 1.09597 15.8344
53 2 4.98032 1.0738 18.0371
54 2 5.55075 3.20473 0
55 2 9.25125 3.20473 2.35169
56 2 9.25125 5.34121 3.13559
57 2 9.25959 5.36192 5.50348
58 2 7.39817 4.29633 6.37652
59 2 7.35515 4.32856 8.71432
60 2 11.0796 6.44678 9.4896
61 2 9.19078 3.24922 11.8474
62 2 9.22102 5.38557 12.6862
63 2 9.21662 5.29234 15.1161
64 2 7.3586 4.52641 16.2198
65 2 7.57301 5.57804 18.3135
66 3 0.862265 2.28563 23.3142
67 3 -1.23114 5.23568 23.7374
68 3 3.44493 1.73416 24.3177
69 3 3.33598 4.42861 23.0894
ITEM: TIMESTEP
800
ITEM: NUMBER OF ATOMS
69
ITEM: BOX BOUNDS xy xz yz pp pp ff
-3.7004999999999999e+00 7.4009999999999998e+00 -3.7004999999999999e+00
0.0000000000000000e+00 6.4094540134086300e+00 0.0000000000000000e+00
0.0000000000000000e+00 4.0329638543820927e+01 0.0000000000000000e+00
ITEM: ATOMS id type xu yu zu
1 1 0.0740691 -0.286369 20.2926
2 1 1.17953 0.479726 19.7815
3 1 -1.14519 1.83834 20.5285
4 1 0.0277225 2.51926 20.2028
5 1 -2.50845 3.9566 20.0711
6 1 -1.34578 4.64549 20.4776
7 1 2.44397 -0.349364 20.5542
8 1 3.68784 0.313308 20.7804
9 1 1.02701 1.81647 19.6352
10 1 -0.0285189 3.99102 20.1668
11 1 1.3281 4.83835 20.1636
12 1 5.07312 -0.321582 20.723
13 1 6.26295 0.45574 20.5591
14 1 3.89222 1.76613 20.8871
15 1 4.94703 2.52523 20.6279
16 1 2.46775 4.27694 19.4909
17 1 3.71618 4.79377 19.8409
18 2 0 0 0
19 2 3.7005 0 2.35169
20 2 3.7005 2.13648 3.13559
21 2 3.71115 2.16821 5.454
22 2 1.86972 1.06031 6.2886
23 2 1.81559 1.14997 8.64549
24 2 5.52452 3.26297 9.51104
25 2 3.66632 0.058581 11.8199
26 2 3.69932 2.2286 12.6005
27 2 3.70643 2.19628 14.9383
28 2 1.8027 1.09508 15.8496
29 2 2.37404 1.09009 18.2626
30 2 1.85025 3.20473 0
31 2 5.55075 3.20473 2.35169
32 2 5.55075 5.34121 3.13559
33 2 5.54151 5.32776 5.48123
34 2 3.68406 4.28898 6.31124
35 2 3.64945 4.31664 8.6609
36 2 7.34786 6.47918 9.47753
37 2 5.51939 3.32813 11.8265
38 2 5.50389 5.44549 12.7576
39 2 5.49522 5.45875 15.0821
40 2 3.79496 4.2783 16.0531
41 2 3.67496 3.4045 18.3387
42 2 3.7005 0 0
43 2 7.401 0 2.35169
44 2 7.401 2.13648 3.13559
45 2 7.42946 2.16742 5.4629
46 2 5.56471 1.094 6.31793
47 2 5.52672 1.13238 8.64723
48 2 9.1803 3.26904 9.49921
49 2 7.35366 0.116784 11.8731
50 2 7.3577 2.24965 12.7427
51 2 7.31719 2.22161 15.1931
52 2 5.59179 1.05676 15.8958
53 2 5.04806 1.15101 18.0549
54 2 5.55075 3.20473 0
55 2 9.25125 3.20473 2.35169
56 2 9.25125 5.34121 3.13559
57 2 9.26989 5.38795 5.48341
58 2 7.41142 4.28764 6.3194
59 2 7.35853 4.34145 8.67579
60 2 11.0645 6.47095 9.50865
61 2 9.22233 3.31905 11.8087
62 2 9.21797 5.43138 12.7819
63 2 9.3628 5.31402 15.205
64 2 7.38939 4.46208 16.1536
65 2 7.62044 5.40537 18.3552
66 3 0.630813 2.63201 23.4772
67 3 -1.11801 5.14245 23.8359
68 3 3.29832 1.51018 24.1037
69 3 3.22572 4.63092 23.3777
ITEM: TIMESTEP
900
ITEM: NUMBER OF ATOMS
69
ITEM: BOX BOUNDS xy xz yz pp pp ff
-3.7004999999999999e+00 7.4009999999999998e+00 -3.7004999999999999e+00
0.0000000000000000e+00 6.4094540134086300e+00 0.0000000000000000e+00
0.0000000000000000e+00 4.0329638543820927e+01 0.0000000000000000e+00
ITEM: ATOMS id type xu yu zu
1 1 0.0662908 -0.293865 20.2802
2 1 1.26278 0.391483 20.08
3 1 -1.10332 1.89394 20.4621
4 1 0.0255781 2.4806 19.9256
5 1 -2.47019 4.0216 20.2628
6 1 -1.30742 4.73498 20.539
7 1 2.44786 -0.259669 20.5304
8 1 3.73861 0.325851 20.741
9 1 1.07734 1.60468 19.689
10 1 0.0808948 4.06792 19.979
11 1 1.25972 4.80567 19.9872
12 1 5.08264 -0.314252 20.5631
13 1 6.27543 0.46095 20.6363
14 1 3.99297 1.69355 20.8338
15 1 5.04638 2.52054 20.6403
16 1 2.47595 4.21981 19.6875
17 1 3.70733 4.72329 19.9462
18 2 0 0 0
19 2 3.7005 0 2.35169
20 2 3.7005 2.13648 3.13559
21 2 3.71369 2.18018 5.4978
22 2 1.85561 1.07887 6.31168
23 2 1.78681 1.14605 8.62791
24 2 5.50675 3.28254 9.42438
25 2 3.64505 0.0175558 11.8173
26 2 3.68869 2.20418 12.5448
27 2 3.75253 2.2198 14.8405
28 2 1.83286 1.16551 15.9664
29 2 2.45924 1.0817 18.2068
30 2 1.85025 3.20473 0
31 2 5.55075 3.20473 2.35169
32 2 5.55075 5.34121 3.13559
33 2 5.54987 5.34233 5.46477
34 2 3.68555 4.32039 6.3164
35 2 3.65439 4.37556 8.62835
36 2 7.34033 6.50161 9.43597
37 2 5.57389 3.37707 11.786
38 2 5.49501 5.4751 12.7428
39 2 5.65736 5.38882 15.107
40 2 3.78621 4.25753 15.962
41 2 3.60698 3.33936 18.3055
42 2 3.7005 0 0
43 2 7.401 0 2.35169
44 2 7.401 2.13648 3.13559
45 2 7.43537 2.13785 5.457
46 2 5.57349 1.12243 6.28121
47 2 5.52224 1.11614 8.63023
48 2 9.2192 3.32087 9.47147
49 2 7.35169 0.0695911 11.9031
50 2 7.37541 2.24918 12.7284
51 2 7.34329 2.24527 15.1415
52 2 5.48267 1.07986 15.8433
53 2 4.93101 1.14463 18.0666
54 2 5.55075 3.20473 0
55 2 9.25125 3.20473 2.35169
56 2 9.25125 5.34121 3.13559
57 2 9.23012 5.36813 5.45701
58 2 7.41927 4.30824 6.29686
59 2 7.35423 4.35304 8.58862
60 2 11.0609 6.48862 9.55282
61 2 9.21944 3.35659 11.8891
62 2 9.23072 5.44653 12.8477
63 2 9.28928 5.32716 15.1696
64 2 7.46649 4.29196 16.0794
65 2 7.44297 5.36344 18.2761
66 3 0.506346 2.99012 23.4719
67 3 -1.22742 4.94897 23.846
68 3 3.32519 1.53407 23.8806
69 3 3.10068 4.61921 23.6134
ITEM: TIMESTEP
1000
ITEM: NUMBER OF ATOMS
69
ITEM: BOX BOUNDS xy xz yz pp pp ff
-3.7004999999999999e+00 7.4009999999999998e+00 -3.7004999999999999e+00
0.0000000000000000e+00 6.4094540134086300e+00 0.0000000000000000e+00
0.0000000000000000e+00 4.0329638543820927e+01 0.0000000000000000e+00
ITEM: ATOMS id type xu yu zu
1 1 0.0591499 -0.375149 20.3198
2 1 1.26182 0.367246 20.2248
3 1 -0.999337 1.77577 20.3684
4 1 0.138944 2.4625 20.1207
5 1 -2.42738 3.98662 20.4201
6 1 -1.23628 4.76646 20.4205
7 1 2.42926 -0.277109 20.5536
8 1 3.73619 0.437654 20.6352
9 1 1.18545 1.6422 19.8963
10 1 0.00546692 4.07818 19.9018
11 1 1.27042 4.75184 20.0471
12 1 4.98479 -0.294653 20.3851
13 1 6.22959 0.310061 20.3569
14 1 4.04033 1.76614 20.8633
15 1 5.15297 2.51371 20.5463
16 1 2.41469 4.20191 19.6854
17 1 3.6869 4.58658 20.0383
18 2 0 0 0
19 2 3.7005 0 2.35169
20 2 3.7005 2.13648 3.13559
21 2 3.68646 2.1639 5.49195
22 2 1.86276 1.11134 6.35446
23 2 1.77965 1.17952 8.69252
24 2 5.51513 3.29733 9.42789
25 2 3.69546 0.0671429 11.8069
26 2 3.7054 2.23536 12.4911
27 2 3.62642 2.18965 14.8387
28 2 1.85465 1.14469 15.9179
29 2 2.43242 1.15965 18.2531
30 2 1.85025 3.20473 0
31 2 5.55075 3.20473 2.35169
32 2 5.55075 5.34121 3.13559
33 2 5.55735 5.39973 5.47213
34 2 3.68995 4.33379 6.32668
35 2 3.67994 4.4052 8.66385
36 2 7.36213 6.47721 9.48917
37 2 5.5644 3.3009 11.7801
38 2 5.54784 5.42253 12.7319
39 2 5.68676 5.33523 15.1618
40 2 3.77244 4.25695 15.958
41 2 3.69025 3.31784 18.3664
42 2 3.7005 0 0
43 2 7.401 0 2.35169
44 2 7.401 2.13648 3.13559
45 2 7.40412 2.1673 5.48769
46 2 5.54366 1.10018 6.33435
47 2 5.5164 1.14636 8.64729
48 2 9.21748 3.31563 9.52974
49 2 7.34476 0.124943 11.9349
50 2 7.39442 2.24371 12.7458
51 2 7.45218 2.17107 15.0665
52 2 5.53028 1.16018 15.8017
53 2 4.76756 1.08663 18.0343
54 2 5.55075 3.20473 0
55 2 9.25125 3.20473 2.35169
56 2 9.25125 5.34121 3.13559
57 2 9.25006 5.39092 5.46575
58 2 7.37625 4.28526 6.27421
59 2 7.37682 4.36425 8.61293
60 2 11.0546 6.5131 9.55849
61 2 9.20787 3.3097 11.8505
62 2 9.20078 5.42447 12.7354
63 2 9.23212 5.35375 15.088
64 2 7.47907 4.31113 16.0828
65 2 7.45504 5.36798 18.1009
66 3 0.546443 3.03377 23.2654
67 3 -1.45756 4.97158 23.8353
68 3 3.32983 1.59231 23.6885
69 3 2.97567 4.64504 23.677
ITEM: TIMESTEP
1100
ITEM: NUMBER OF ATOMS
69
ITEM: BOX BOUNDS xy xz yz pp pp ff
-3.7004999999999999e+00 7.4009999999999998e+00 -3.7004999999999999e+00
0.0000000000000000e+00 6.4094540134086300e+00 0.0000000000000000e+00
0.0000000000000000e+00 4.0329638543820927e+01 0.0000000000000000e+00
ITEM: ATOMS id type xu yu zu
1 1 0.126986 -0.297214 20.21
2 1 1.38893 0.340536 20.2165
3 1 -1.11814 1.81633 20.3454
4 1 0.0522646 2.47025 20.0862
5 1 -2.46603 3.85982 20.1749
6 1 -1.22468 4.59444 20.4679
7 1 2.49542 -0.4258 20.5519
8 1 3.84684 0.286037 20.7506
9 1 1.22454 1.66906 20.0906
10 1 0.111675 3.97964 20.0313
11 1 1.35229 4.73581 19.872
12 1 5.15508 -0.391089 20.5033
13 1 6.29234 0.404908 20.4148
14 1 3.86028 1.62228 20.7774
15 1 5.01313 2.40478 20.5252
16 1 2.50663 4.15436 19.637
17 1 3.70968 4.641 20.1284
18 2 0 0 0
19 2 3.7005 0 2.35169
20 2 3.7005 2.13648 3.13559
21 2 3.68995 2.20004 5.48126
22 2 1.82012 1.15377 6.39039
23 2 1.8467 1.16464 8.74534
24 2 5.55534 3.32252 9.51243
25 2 3.68223 0.0978 11.8162
26 2 3.69261 2.25075 12.5968
27 2 3.65252 2.1993 14.9012
28 2 1.82367 0.973024 15.9112
29 2 2.30493 1.21459 18.2735
30 2 1.85025 3.20473 0
31 2 5.55075 3.20473 2.35169
32 2 5.55075 5.34121 3.13559
33 2 5.51545 5.4211 5.49967
34 2 3.7074 4.32202 6.33656
35 2 3.66852 4.3805 8.69761
36 2 7.36237 6.49242 9.5095
37 2 5.56629 3.27821 11.812
38 2 5.57556 5.36931 12.766
39 2 5.52135 5.32485 15.1092
40 2 3.70581 4.2837 16.0493
41 2 3.75859 3.40979 18.3694
42 2 3.7005 0 0
43 2 7.401 0 2.35169
44 2 7.401 2.13648 3.13559
45 2 7.36139 2.15878 5.49692
46 2 5.50855 1.10133 6.36399
47 2 5.50633 1.17107 8.69858
48 2 9.22299 3.31483 9.49646
49 2 7.42592 0.0809903 11.9018
50 2 7.38351 2.22681 12.729
51 2 7.42931 2.19002 15.111
52 2 5.54593 1.15003 15.8332
53 2 4.77033 1.13303 18.0114
54 2 5.55075 3.20473 0
55 2 9.25125 3.20473 2.35169
56 2 9.25125 5.34121 3.13559
57 2 9.25124 5.37328 5.50728
58 2 7.38652 4.33932 6.31703
59 2 7.39107 4.35384 8.66339
60 2 11.0616 6.53972 9.57526
61 2 9.21928 3.26912 11.7744
62 2 9.2313 5.40311 12.6327
63 2 9.32463 5.44626 15.06
64 2 7.47091 4.35938 15.9719
65 2 7.50263 5.3946 18.2022
66 3 0.649834 2.84086 22.9429
67 3 -1.70771 5.15939 23.801
68 3 3.30629 1.64874 23.557
69 3 2.81799 4.77009 23.5918
ITEM: TIMESTEP
1200
ITEM: NUMBER OF ATOMS
69
ITEM: BOX BOUNDS xy xz yz pp pp ff
-3.7004999999999999e+00 7.4009999999999998e+00 -3.7004999999999999e+00
0.0000000000000000e+00 6.4094540134086300e+00 0.0000000000000000e+00
0.0000000000000000e+00 4.0329638543820927e+01 0.0000000000000000e+00
ITEM: ATOMS id type xu yu zu
1 1 0.124488 -0.445841 20.3326
2 1 1.31252 0.340273 20.1385
3 1 -1.08229 1.79291 20.5067
4 1 0.129138 2.4739 20.1554
5 1 -2.45089 3.92077 20.2173
6 1 -1.18779 4.56999 20.4928
7 1 2.46934 -0.457309 20.5474
8 1 3.82179 0.251906 20.6701
9 1 1.09323 1.62196 19.8154
10 1 0.123253 3.91236 19.9715
11 1 1.34892 4.6862 20.0719
12 1 5.15475 -0.399016 20.5248
13 1 6.30905 0.298001 20.524
14 1 4.02293 1.59182 20.8435
15 1 5.05241 2.47032 20.5665
16 1 2.51102 4.24137 19.6248
17 1 3.79558 4.6794 19.7802
18 2 0 0 0
19 2 3.7005 0 2.35169
20 2 3.7005 2.13648 3.13559
21 2 3.66708 2.19071 5.50669
22 2 1.79694 1.15949 6.35503
23 2 1.8262 1.12725 8.65984
24 2 5.52559 3.31485 9.56355
25 2 3.67796 0.0586689 11.9123
26 2 3.66777 2.20465 12.7412
27 2 3.66881 2.19158 15.0784
28 2 1.73957 1.05097 16.0219
29 2 2.3921 1.10209 18.3759
30 2 1.85025 3.20473 0
31 2 5.55075 3.20473 2.35169
32 2 5.55075 5.34121 3.13559
33 2 5.53331 5.43146 5.5077
34 2 3.69594 4.33213 6.38078
35 2 3.71829 4.39351 8.68048
36 2 7.41314 6.50233 9.53794
37 2 5.56334 3.28413 11.9279
38 2 5.57011 5.39489 12.7517
39 2 5.49549 5.23569 15.0713
40 2 3.63011 4.28595 16.0635
41 2 3.80227 3.3835 18.3677
42 2 3.7005 0 0
43 2 7.401 0 2.35169
44 2 7.401 2.13648 3.13559
45 2 7.33462 2.20707 5.50523
46 2 5.50659 1.12701 6.35844
47 2 5.54338 1.18789 8.72133
48 2 9.26244 3.28777 9.43312
49 2 7.46875 0.00343607 11.8722
50 2 7.41823 2.16802 12.7527
51 2 7.40147 2.28794 15.1879
52 2 5.49268 1.14413 15.9132
53 2 4.77405 1.09531 18.0589
54 2 5.55075 3.20473 0
55 2 9.25125 3.20473 2.35169
56 2 9.25125 5.34121 3.13559
57 2 9.2331 5.37585 5.49841
58 2 7.36189 4.3538 6.3611
59 2 7.3719 4.38316 8.65572
60 2 11.1005 6.49603 9.54327
61 2 9.23139 3.28695 11.8484
62 2 9.30055 5.42046 12.7093
63 2 9.29414 5.40857 15.0382
64 2 7.45657 4.51032 15.9742
65 2 7.54061 5.40242 18.1987
66 3 0.663089 2.66379 22.7829
67 3 -1.8568 5.33109 23.6762
68 3 3.31537 1.63625 23.5493
69 3 2.61078 5.02222 23.3814
ITEM: TIMESTEP
1300
ITEM: NUMBER OF ATOMS
69
ITEM: BOX BOUNDS xy xz yz pp pp ff
-3.7004999999999999e+00 7.4009999999999998e+00 -3.7004999999999999e+00
0.0000000000000000e+00 6.4094540134086300e+00 0.0000000000000000e+00
0.0000000000000000e+00 4.0329638543820927e+01 0.0000000000000000e+00
ITEM: ATOMS id type xu yu zu
1 1 -0.0152301 -0.407595 20.3086
2 1 1.29317 0.269745 20.1039
3 1 -1.02114 1.76852 20.47
4 1 0.152679 2.3602 20.079
5 1 -2.38438 3.98593 20.1251
6 1 -1.20985 4.72233 20.5078
7 1 2.50005 -0.328145 20.5053
8 1 3.78036 0.395175 20.7115
9 1 1.22955 1.61348 19.7977
10 1 0.0864727 3.98856 20.0298
11 1 1.27837 4.66281 20.0154
12 1 5.00171 -0.491797 20.5745
13 1 6.18247 0.281211 20.6192