ITEM: TIMESTEP
0
ITEM: NUMBER OF ATOMS
75
ITEM: BOX BOUNDS xy xz yz pp pp ff
-3.7004999999999999e+00 7.4009999999999998e+00 -3.7004999999999999e+00
0.0000000000000000e+00 6.4094540134086300e+00 0.0000000000000000e+00
0.0000000000000000e+00 4.0329638543820927e+01 0.0000000000000000e+00
ITEM: ATOMS id type xu yu zu
1 1 -0.166394 0.132663 20.0389
2 1 1.02596 0.898578 20.0691
3 1 -1.37831 2.25553 20.5477
4 1 -0.193277 2.93483 20.3996
5 1 -2.6808 4.27721 20.0277
6 1 -1.33728 5.07743 19.7924
7 1 2.29045 0.180615 19.9694
8 1 3.48616 0.825216 20.3807
9 1 1.04264 2.23247 20.641
10 1 2.27296 2.97512 20.7563
11 1 -0.158385 4.41489 20.2514
12 1 1.11638 5.10833 20.4681
13 1 4.78128 0.0694761 20.4067
14 1 6.00711 0.873503 20.1222
15 1 3.50246 2.22584 20.6625
16 1 4.80108 2.90638 20.5033
17 1 2.30379 4.34663 20.4979
18 1 3.49208 5.04528 20.1787
19 2 0 0 0
20 2 3.7005 0 2.35169
21 2 3.7005 2.13648 3.13559
22 2 3.69538 2.11291 5.45997
23 2 1.82828 1.05091 6.29664
24 2 1.82678 1.06341 8.61802
25 2 5.57145 3.18517 9.39091
26 2 3.71327 -0.0285169 11.7629
27 2 3.71731 2.1345 12.4281
28 2 3.71629 2.10499 14.6706
29 2 1.84705 1.05572 15.7334
30 2 2.27684 1.73079 17.9513
31 2 1.85025 3.20473 0
32 2 5.55075 3.20473 2.35169
33 2 5.55075 5.34121 3.13559
34 2 5.54822 5.32733 5.46351
35 2 3.68898 4.25145 6.26094
36 2 3.72264 4.26782 8.5937
37 2 7.35973 6.38557 9.42768
38 2 5.58432 3.2381 11.7211
39 2 5.53095 5.35754 12.611
40 2 5.63615 5.31122 15.0023
41 2 3.78292 4.25291 15.7588
42 2 3.68127 3.51696 18.0122
43 2 3.7005 0 0
44 2 7.401 0 2.35169
45 2 7.401 2.13648 3.13559
46 2 7.40244 2.11155 5.46886
47 2 5.55454 1.06014 6.28153
48 2 5.52105 1.02121 8.61661
49 2 9.24876 3.21187 9.39894
50 2 7.38836 0.00735809 11.7668
51 2 7.40673 2.15503 12.5806
52 2 7.43795 2.21873 14.9701
53 2 5.54596 1.09642 15.7789
54 2 4.87195 1.55275 17.975
55 2 5.55075 3.20473 0
56 2 9.25125 3.20473 2.35169
57 2 9.25125 5.34121 3.13559
58 2 9.23587 5.32631 5.44934
59 2 7.39759 4.25316 6.29333
60 2 7.40846 4.27552 8.58742
61 2 11.0897 6.41004 9.43831
62 2 9.24901 3.2131 11.7383
63 2 9.2605 5.33312 12.6278
64 2 9.30467 5.31149 15.0215
65 2 7.44681 4.30543 15.9798
66 2 7.28542 3.84076 18.3798
67 3 1.92172 1.40004 25.2333
68 3 -0.622436 2.96627 26.6928
69 3 -1.50751 5.12978 23.8441
70 3 3.52711 0.652922 22.6532
71 3 1.64374 3.45546 23.0252
72 3 1.07902 5.24234 25.0606
73 3 6.54537 0.753961 23.7357
74 3 4.97765 2.88026 22.6973
75 3 3.99277 4.1189 26.3139
ITEM: TIMESTEP
100
ITEM: NUMBER OF ATOMS
75
ITEM: BOX BOUNDS xy xz yz pp pp ff
-3.7004999999999999e+00 7.4009999999999998e+00 -3.7004999999999999e+00
0.0000000000000000e+00 6.4094540134086300e+00 0.0000000000000000e+00
0.0000000000000000e+00 4.0329638543820927e+01 0.0000000000000000e+00
ITEM: ATOMS id type xu yu zu
1 1 -0.0629408 0.134238 20.3978
2 1 1.09353 0.722232 20.2985
3 1 -1.43766 2.22012 20.3646
4 1 -0.0956236 2.78702 20.2669
5 1 -2.63809 4.37598 20.2424
6 1 -1.33479 4.94766 19.766
7 1 2.20002 0.156479 19.9301
8 1 3.50097 0.790951 20.4029
9 1 1.12828 2.10355 20.2426
10 1 2.29513 2.92377 20.5303
11 1 -0.0817974 4.48722 20.0099
12 1 1.09485 5.16096 20.416
13 1 4.70844 0.145689 20.4277
14 1 6.00443 0.823457 20.4373
15 1 3.58061 2.23253 20.5515
16 1 4.75177 3.03709 20.4739
17 1 2.31508 4.36021 20.6474
18 1 3.55846 5.03057 20.3364
19 2 0 0 0
20 2 3.7005 0 2.35169
21 2 3.7005 2.13648 3.13559
22 2 3.61918 2.04211 5.55985
23 2 1.6687 1.01672 6.32325
24 2 1.66146 1.07691 8.6896
25 2 5.58545 3.11743 9.41016
26 2 3.64045 0.0476501 11.7896
27 2 3.79998 2.20303 12.447
28 2 3.6216 2.15208 14.6831
29 2 1.80227 1.14575 15.5671
30 2 2.35291 1.66782 17.8058
31 2 1.85025 3.20473 0
32 2 5.55075 3.20473 2.35169
33 2 5.55075 5.34121 3.13559
34 2 5.53616 5.2688 5.52201
35 2 3.77619 4.15413 6.31598
36 2 3.71468 4.19551 8.56857
37 2 7.28231 6.5653 9.48759
38 2 5.83956 3.20986 11.6962
39 2 5.55031 5.22118 12.6565
40 2 5.61554 5.18102 14.9804
41 2 3.75657 4.29885 15.6417
42 2 3.7605 3.70559 17.7747
43 2 3.7005 0 0
44 2 7.401 0 2.35169
45 2 7.401 2.13648 3.13559
46 2 7.29696 2.16933 5.48942
47 2 5.5023 1.04222 6.30924
48 2 5.56217 0.906135 8.66352
49 2 9.14016 3.23712 9.31449
50 2 7.42308 -0.0568371 11.9288
51 2 7.59175 2.09092 12.6589
52 2 7.33717 2.27388 15.1049
53 2 5.51109 1.14729 15.6771
54 2 4.92164 1.55629 17.8432
55 2 5.55075 3.20473 0
56 2 9.25125 3.20473 2.35169
57 2 9.25125 5.34121 3.13559
58 2 9.38146 5.38598 5.33804
59 2 7.52138 4.33914 6.2061
60 2 7.38609 4.38285 8.5211
61 2 11.04 6.23013 9.67373
62 2 9.26849 3.30412 11.6087
63 2 9.23295 5.3604 12.6224
64 2 9.32457 5.38476 15.1507
65 2 7.43796 4.49512 16.1038
66 2 7.11625 3.66696 18.2323
67 3 2.07539 1.56172 25.073
68 3 -0.545113 3.34437 26.7063
69 3 -1.62172 5.04398 24.0757
70 3 3.65588 0.870617 22.4512
71 3 1.6386 3.10623 22.8339
72 3 0.941015 5.32223 25.2278
73 3 7.13889 0.474094 23.6441
74 3 4.67125 3.12155 23.0783
75 3 3.82295 3.75595 26.11
ITEM: TIMESTEP
200
ITEM: NUMBER OF ATOMS
75
ITEM: BOX BOUNDS xy xz yz pp pp ff
-3.7004999999999999e+00 7.4009999999999998e+00 -3.7004999999999999e+00
0.0000000000000000e+00 6.4094540134086300e+00 0.0000000000000000e+00
0.0000000000000000e+00 4.0329638543820927e+01 0.0000000000000000e+00
ITEM: ATOMS id type xu yu zu
1 1 -0.0186892 0.128899 20.6181
2 1 1.11055 0.749573 20.4158
3 1 -1.34074 2.15527 20.6944
4 1 -0.0435831 2.8664 20.0545
5 1 -2.58978 4.37496 20.3247
6 1 -1.4214 5.18653 20.3062
7 1 2.26805 0.166955 20.3709
8 1 3.63106 0.761141 20.1669
9 1 1.13051 2.1808 20.2736
10 1 2.42825 2.9909 20.1501
11 1 -0.034125 4.29731 19.8734
12 1 1.25383 5.01848 20.0843
13 1 4.76282 0.0125196 20.3685
14 1 6.07901 0.765202 20.7567
15 1 3.58693 2.23632 20.0666
16 1 4.84678 2.99877 20.4439
17 1 2.49401 4.39352 20.1242
18 1 3.6455 5.0379 20.6777
19 2 0 0 0
20 2 3.7005 0 2.35169
21 2 3.7005 2.13648 3.13559
22 2 3.51768 1.98612 5.43631
23 2 1.71351 0.99415 6.39071
24 2 1.58613 1.01637 8.6588
25 2 5.62756 3.12417 9.36384
26 2 3.69715 0.102386 11.8829
27 2 3.83015 2.28442 12.456
28 2 3.66048 2.26581 14.5764
29 2 1.91595 1.0933 15.5667
30 2 2.44783 1.66412 17.5303
31 2 1.85025 3.20473 0
32 2 5.55075 3.20473 2.35169
33 2 5.55075 5.34121 3.13559
34 2 5.60301 5.35344 5.38401
35 2 3.71143 4.15368 6.30226
36 2 3.71027 4.09687 8.70857
37 2 7.27928 6.46716 9.48758
38 2 5.75115 3.01913 11.7444
39 2 5.73704 5.26504 12.6929
40 2 5.62104 5.4805 14.9866
41 2 3.58824 4.22265 15.486
42 2 3.85996 3.66508 17.5652
43 2 3.7005 0 0
44 2 7.401 0 2.35169
45 2 7.401 2.13648 3.13559
46 2 7.33885 2.19785 5.41123
47 2 5.47059 1.02641 6.39947
48 2 5.56059 1.01861 8.69837
49 2 9.16853 3.24389 9.35205
50 2 7.44515 -0.0935726 12.0561
51 2 7.65507 2.13111 12.7961
52 2 7.36037 2.41172 15.0705
53 2 5.36809 1.21432 15.4933
54 2 4.94527 1.60914 17.599
55 2 5.55075 3.20473 0
56 2 9.25125 3.20473 2.35169
57 2 9.25125 5.34121 3.13559
58 2 9.40234 5.30646 5.53054
59 2 7.44504 4.34271 6.20822
60 2 7.22365 4.44504 8.54928
61 2 11.0499 6.21849 9.6127
62 2 9.39351 3.26041 11.7648
63 2 9.14569 5.41322 12.8446
64 2 9.17135 5.47957 15.0153
65 2 7.50826 4.45297 16.1713
66 2 6.48174 3.36305 18.0812
67 3 2.29556 1.6611 24.9849
68 3 -0.455421 3.6255 26.8302
69 3 -1.54688 5.21373 24.2661
70 3 3.72939 0.699397 22.4229
71 3 1.54796 2.86332 22.5231
72 3 1.01414 5.5302 25.2836
73 3 7.63312 0.184515 23.4611
74 3 4.37075 3.30887 23.3882
75 3 3.57981 3.47794 25.9225
ITEM: TIMESTEP
300
ITEM: NUMBER OF ATOMS
75
ITEM: BOX BOUNDS xy xz yz pp pp ff
-3.7004999999999999e+00 7.4009999999999998e+00 -3.7004999999999999e+00
0.0000000000000000e+00 6.4094540134086300e+00 0.0000000000000000e+00
0.0000000000000000e+00 4.0329638543820927e+01 0.0000000000000000e+00
ITEM: ATOMS id type xu yu zu
1 1 0.10995 0.0953539 20.524
2 1 1.25508 0.824394 20.5842
3 1 -1.3137 2.13607 20.42
4 1 -0.185565 2.91322 20.0182
5 1 -2.5876 4.32732 20.5837
6 1 -1.28912 5.08387 20.4734
7 1 2.49304 0.101749 20.5837
8 1 3.72294 0.775725 20.3745
9 1 1.16781 2.28839 20.2159
10 1 2.4494 2.86845 20.1591
11 1 -0.0995702 4.345 20.0805
12 1 1.10554 5.05527 20.058
13 1 4.86094 0.0722157 20.1729
14 1 6.1089 0.72995 20.3491
15 1 3.6169 2.15315 20.4196
16 1 4.893 2.82893 20.4623
17 1 2.35682 4.35071 20.0972
18 1 3.6959 5.13705 20.1982
19 2 0 0 0
20 2 3.7005 0 2.35169
21 2 3.7005 2.13648 3.13559
22 2 3.68388 2.0897 5.45715
23 2 1.73875 1.06643 6.30914
24 2 1.78502 1.05822 8.70902
25 2 5.57286 3.17574 9.51754
26 2 3.79098 0.0484552 11.7669
27 2 3.76927 2.17394 12.3268
28 2 3.65366 2.29062 14.4581
29 2 1.90642 1.36303 15.4064
30 2 2.62316 1.66994 17.6144
31 2 1.85025 3.20473 0
32 2 5.55075 3.20473 2.35169
33 2 5.55075 5.34121 3.13559
34 2 5.47108 5.33239 5.45212
35 2 3.73707 4.16931 6.35215
36 2 3.63283 4.1799 8.64855
37 2 7.31303 6.41161 9.50005
38 2 5.7346 3.19367 11.806
39 2 5.67987 5.27941 12.6795
40 2 5.57902 5.37464 15.1357
41 2 3.70876 4.43854 15.3445
42 2 3.94533 3.63832 17.6431
43 2 3.7005 0 0
44 2 7.401 0 2.35169
45 2 7.401 2.13648 3.13559
46 2 7.34304 2.06037 5.51173
47 2 5.53078 1.08213 6.30116
48 2 5.50648 0.98747 8.66903
49 2 9.10033 3.17994 9.56065
50 2 7.48471 -0.0426162 11.9254
51 2 7.55455 2.16806 12.6938
52 2 7.46933 2.34571 15.1388
53 2 5.48592 1.38461 15.3748
54 2 4.91753 1.45911 17.6007
55 2 5.55075 3.20473 0
56 2 9.25125 3.20473 2.35169
57 2 9.25125 5.34121 3.13559
58 2 9.20178 5.31579 5.57451
59 2 7.33507 4.23191 6.33071
60 2 7.40685 4.25554 8.60455
61 2 11.0093 6.31847 9.5897
62 2 9.30102 3.33512 11.8655
63 2 9.27666 5.35374 12.692
64 2 9.09268 5.4558 15.0777
65 2 7.24407 4.2811 16.2076
66 2 6.09522 3.4084 17.937
67 3 2.31405 1.50702 24.8803
68 3 -0.412415 3.83233 26.9789
69 3 -1.16877 5.25663 24.5071
70 3 3.78988 0.284503 22.4928
71 3 1.40343 2.68766 22.2117
72 3 1.3322 5.79998 25.2161
73 3 7.73253 0.0228059 23.3035
74 3 4.07915 3.35603 23.5324
75 3 3.51144 3.60466 26.1376
ITEM: TIMESTEP
400
ITEM: NUMBER OF ATOMS
75
ITEM: BOX BOUNDS xy xz yz pp pp ff
-3.7004999999999999e+00 7.4009999999999998e+00 -3.7004999999999999e+00
0.0000000000000000e+00 6.4094540134086300e+00 0.0000000000000000e+00
0.0000000000000000e+00 4.0329638543820927e+01 0.0000000000000000e+00
ITEM: ATOMS id type xu yu zu
1 1 -0.0631362 -0.0466938 20.0188
2 1 1.10519 0.628076 20.1188
3 1 -1.31244 2.17586 20.3
4 1 -0.123661 2.87931 20.2728
5 1 -2.44191 4.38314 20.3941
6 1 -1.29154 5.03197 20.36
7 1 2.38063 -0.0363623 20.3267
8 1 3.61236 0.817108 20.5624
9 1 1.11091 2.13778 20.2851
10 1 2.44596 2.89771 20.5127
11 1 -0.0256425 4.32716 20.1912
12 1 1.12124 5.07023 20.2326
13 1 4.84815 0.146454 20.4218
14 1 6.07844 0.806244 20.0982
15 1 3.68266 2.20595 20.5876
16 1 4.85154 2.9079 20.4101
17 1 2.40567 4.38193 20.4308
18 1 3.69269 5.02032 20.2614
19 2 0 0 0
20 2 3.7005 0 2.35169
21 2 3.7005 2.13648 3.13559
22 2 3.73367 2.17443 5.52516
23 2 1.9294 1.05659 6.33271
24 2 1.85226 1.02002 8.65957
25 2 5.44166 3.19815 9.48955
26 2 3.77752 -0.126816 11.7077
27 2 3.74563 2.15397 12.2601
28 2 3.77601 2.42018 14.5581
29 2 2.02724 1.25787 15.5599
30 2 2.71267 1.59951 17.5995
31 2 1.85025 3.20473 0
32 2 5.55075 3.20473 2.35169
33 2 5.55075 5.34121 3.13559
34 2 5.45707 5.30706 5.59738
35 2 3.56147 4.31574 6.34826
36 2 3.60804 4.32316 8.68104
37 2 7.42675 6.30241 9.37023
38 2 5.62094 3.35716 11.8262
39 2 5.59387 5.42431 12.7713
40 2 5.63671 5.52661 15.002
41 2 3.64288 4.40382 15.6338
42 2 3.78902 3.71446 17.6128
43 2 3.7005 0 0
44 2 7.401 0 2.35169
45 2 7.401 2.13648 3.13559
46 2 7.38854 2.09953 5.48464
47 2 5.50993 0.963145 6.30761
48 2 5.50338 1.05133 8.59994
49 2 9.29196 3.12165 9.57832
50 2 7.50309 0.0568088 11.7459
51 2 7.38022 2.17152 12.6895
52 2 7.37662 2.35082 15.0043
53 2 5.49128 1.2079 15.4719
54 2 4.94428 1.26284 17.4537
55 2 5.55075 3.20473 0
56 2 9.25125 3.20473 2.35169
57 2 9.25125 5.34121 3.13559
58 2 9.10073 5.27155 5.41644
59 2 7.27026 4.17733 6.33631
60 2 7.4058 4.13783 8.68608
61 2 11.1092 6.44065 9.44254
62 2 9.19131 3.22974 11.8153
63 2 9.40376 5.43343 12.6422
64 2 9.08245 5.48254 15.1727
65 2 7.20161 4.32598 16.0336
66 2 6.30279 3.64495 17.9338
67 3 2.1797 1.37502 24.8035
68 3 -0.348824 4.04409 27.0942
69 3 -0.904722 4.89449 24.7106
70 3 3.90336 -0.0140017 22.5992
71 3 1.34689 2.57127 22.6038
72 3 1.80174 6.02819 25.1671
73 3 7.55 -0.0745851 23.211
74 3 3.88979 3.36479 23.4772
75 3 3.58322 3.96017 26.6866
ITEM: TIMESTEP
500
ITEM: NUMBER OF ATOMS
75
ITEM: BOX BOUNDS xy xz yz pp pp ff
-3.7004999999999999e+00 7.4009999999999998e+00 -3.7004999999999999e+00
0.0000000000000000e+00 6.4094540134086300e+00 0.0000000000000000e+00
0.0000000000000000e+00 4.0329638543820927e+01 0.0000000000000000e+00
ITEM: ATOMS id type xu yu zu
1 1 -0.132317 -0.0188891 20.2097
2 1 1.12518 0.731235 20.1065
3 1 -1.32058 2.13753 20.4914
4 1 -0.136781 2.95177 20.3838
5 1 -2.59528 4.32521 20.3103
6 1 -1.46746 5.03143 20.2669
7 1 2.34533 0.0534932 20.1249
8 1 3.66823 0.680038 20.1919
9 1 1.15094 2.16609 20.291
10 1 2.4306 2.89123 20.4493
11 1 -0.235365 4.2529 20.2613
12 1 1.08552 4.92203 20.4496
13 1 4.82192 -0.00427395 20.3949
14 1 6.02368 0.729806 20.3673
15 1 3.68883 2.12713 20.3246
16 1 4.84999 2.88823 20.5025
17 1 2.45048 4.32574 20.317
18 1 3.68255 5.01328 20.3746
19 2 0 0 0
20 2 3.7005 0 2.35169
21 2 3.7005 2.13648 3.13559
22 2 3.70373 2.19296 5.44807
23 2 1.90162 1.04896 6.29635
24 2 1.96944 0.992548 8.54755
25 2 5.47133 3.22114 9.40491
26 2 3.78845 -0.0248653 11.7386
27 2 3.69621 2.12176 12.4593
28 2 3.79055 2.30591 14.5977
29 2 1.94122 1.28411 15.5803
30 2 2.72752 1.55065 17.6544
31 2 1.85025 3.20473 0
32 2 5.55075 3.20473 2.35169
33 2 5.55075 5.34121 3.13559
34 2 5.49625 5.33354 5.43703
35 2 3.52378 4.34987 6.3226
36 2 3.68032 4.36221 8.64496
37 2 7.48226 6.24018 9.38047
38 2 5.42746 3.31075 11.7659
39 2 5.58109 5.56469 12.5777
40 2 5.47844 5.58687 14.9018
41 2 3.64319 4.48069 15.6925
42 2 3.80462 3.66731 17.8413
43 2 3.7005 0 0
44 2 7.401 0 2.35169
45 2 7.401 2.13648 3.13559
46 2 7.43328 2.04323 5.41935
47 2 5.54031 1.00589 6.25672
48 2 5.57479 1.10999 8.57828
49 2 9.31522 3.15221 9.38349
50 2 7.42969 0.143888 11.7374
51 2 7.27132 2.24373 12.5994
52 2 7.45572 2.21059 14.868
53 2 5.48413 1.12406 15.3912
54 2 5.16275 1.48203 17.7443
55 2 5.55075 3.20473 0
56 2 9.25125 3.20473 2.35169
57 2 9.25125 5.34121 3.13559
58 2 9.08512 5.2645 5.38976
59 2 7.29224 4.17618 6.30696
60 2 7.33385 4.11856 8.62594
61 2 11.1207 6.52015 9.3649
62 2 9.24953 3.18301 11.8279
63 2 9.2845 5.38363 12.7369
64 2 9.23286 5.35161 14.9874
65 2 7.39897 4.46897 15.7307
66 2 6.34163 3.69163 17.7973
67 3 2.13991 1.23049 24.9758
68 3 -0.251966 4.19456 27.3852
69 3 -0.870563 4.41939 24.7028
70 3 4.06908 -0.124616 22.6642
71 3 1.12226 2.59922 22.9347
72 3 2.17733 6.17052 25.2311
73 3 7.40527 -0.166574 23.1187
74 3 3.88854 3.39316 23.5875
75 3 3.73159 4.29022 27.1264
ITEM: TIMESTEP
600
ITEM: NUMBER OF ATOMS
75
ITEM: BOX BOUNDS xy xz yz pp pp ff
-3.7004999999999999e+00 7.4009999999999998e+00 -3.7004999999999999e+00
0.0000000000000000e+00 6.4094540134086300e+00 0.0000000000000000e+00
0.0000000000000000e+00 4.0329638543820927e+01 0.0000000000000000e+00
ITEM: ATOMS id type xu yu zu
1 1 -0.0546768 -0.0780069 20.4768
2 1 1.19455 0.687367 20.4238
3 1 -1.37078 2.12124 20.4009
4 1 -0.146946 2.89997 20.441
5 1 -2.62044 4.32654 20.4113
6 1 -1.30455 4.99581 20.4677
7 1 2.39124 -0.0563637 20.4023
8 1 3.60287 0.766723 20.4225
9 1 1.12715 2.08592 20.2358
10 1 2.29748 2.84122 20.1487
11 1 -0.098813 4.22308 20.2876
12 1 1.08155 4.98896 20.1139
13 1 4.82171 0.0758325 20.1429
14 1 6.0902 0.724963 20.4251
15 1 3.56617 2.1403 20.291
16 1 4.82055 2.85747 20.3499
17 1 2.35958 4.2883 20.1292
18 1 3.62134 4.99357 20.2666
19 2 0 0 0
20 2 3.7005 0 2.35169
21 2 3.7005 2.13648 3.13559
22 2 3.67808 2.1501 5.41691
23 2 1.83955 1.02679 6.19341
24 2 2.00193 1.05621 8.57141
25 2 5.52636 3.21907 9.40338
26 2 3.74682 0.111299 11.7247
27 2 3.62907 2.17706 12.5488
28 2 3.78262 2.38325 14.6382
29 2 1.96388 1.35357 15.5193
30 2 2.66071 1.51265 17.592
31 2 1.85025 3.20473 0
32 2 5.55075 3.20473 2.35169
33 2 5.55075 5.34121 3.13559
34 2 5.49326 5.30178 5.37661
35 2 3.73742 4.25688 6.24962
36 2 3.68779 4.32093 8.5292
37 2 7.49239 6.38296 9.45702
38 2 5.41813 3.34005 11.6781
39 2 5.4899 5.43566 12.3827
40 2 5.52583 5.45571 14.8211
41 2 3.80133 4.27591 15.6475
42 2 3.92308 3.52039 17.6894
43 2 3.7005 0 0
44 2 7.401 0 2.35169
45 2 7.401 2.13648 3.13559
46 2 7.37192 2.07016 5.44658
47 2 5.51089 1.10856 6.22086
48 2 5.53847 1.03837 8.55665
49 2 9.22285 3.19277 9.36187
50 2 7.2655 0.105025 11.7222
51 2 7.32981 2.30901 12.431
52 2 7.36446 2.29709 14.8249
53 2 5.55478 1.18446 15.5949
54 2 5.23451 1.75705 17.646
55 2 5.55075 3.20473 0
56 2 9.25125 3.20473 2.35169
57 2 9.25125 5.34121 3.13559
58 2 9.18167 5.36563 5.5231
59 2 7.33804 4.21481 6.23913
60 2 7.45745 4.23724 8.51489
61 2 11.1574 6.46595 9.44192
62 2 9.23165 3.27471 11.6558
63 2 9.22739 5.29977 12.5181
64 2 9.30216 5.36729 14.8367
65 2 7.23841 4.32257 15.6366
66 2 6.30313 3.68953 17.5804
67 3 2.21551 0.985849 25.3333
68 3 -0.256764 4.46007 27.4597
69 3 -0.909579 4.01795 24.802
70 3 4.2223 -0.113748 22.7781
71 3 0.817263 2.77465 23.1309
72 3 2.27848 6.07805 25.5742
73 3 7.44244 -0.230971 23.0304
74 3 3.92934 3.36265 23.8457
75 3 4.07382 4.57169 27.2082
ITEM: TIMESTEP
700
ITEM: NUMBER OF ATOMS
75
ITEM: BOX BOUNDS xy xz yz pp pp ff
-3.7004999999999999e+00 7.4009999999999998e+00 -3.7004999999999999e+00
0.0000000000000000e+00 6.4094540134086300e+00 0.0000000000000000e+00
0.0000000000000000e+00 4.0329638543820927e+01 0.0000000000000000e+00
ITEM: ATOMS id type xu yu zu
1 1 -0.130273 -0.0393219 20.1378
2 1 1.10548 0.717598 20.436
3 1 -1.29035 2.15724 20.3002
4 1 -0.071292 2.85922 20.1747
5 1 -2.58082 4.32012 20.4557
6 1 -1.29502 5.04007 20.3747
7 1 2.32878 -0.0418862 20.4278
8 1 3.54019 0.764218 20.4122
9 1 1.15244 2.16641 20.3537
10 1 2.43953 2.84062 20.3726
11 1 -0.0386904 4.26623 20.3525
12 1 1.11911 4.9545 20.1473
13 1 4.80193 0.0645999 20.2971
14 1 6.07123 0.721898 20.2362
15 1 3.64733 2.10254 20.4195
16 1 4.84498 2.8449 20.421
17 1 2.42222 4.33602 20.2181
18 1 3.62607 5.00301 20.2959
19 2 0 0 0
20 2 3.7005 0 2.35169
21 2 3.7005 2.13648 3.13559
22 2 3.6235 2.07992 5.43711
23 2 1.80449 1.04646 6.30762
24 2 1.80154 1.08857 8.56872
25 2 5.59981 3.23227 9.26141
26 2 3.58852 0.0547035 11.7338
27 2 3.64023 2.32854 12.3591
28 2 3.86454 2.23301 14.6184
29 2 1.94256 1.22327 15.353
30 2 2.68254 1.39745 17.611
31 2 1.85025 3.20473 0
32 2 5.55075 3.20473 2.35169
33 2 5.55075 5.34121 3.13559
34 2 5.60055 5.33249 5.47788
35 2 3.6867 4.24579 6.22788
36 2 3.7393 4.26614 8.55542
37 2 7.40019 6.48095 9.36538
38 2 5.5331 3.26473 11.6067
39 2 5.43934 5.41503 12.4819
40 2 5.59371 5.53174 14.6444
41 2 3.72653 4.34863 15.4977
42 2 3.88759 3.59285 17.6367
43 2 3.7005 0 0
44 2 7.401 0 2.35169
45 2 7.401 2.13648 3.13559
46 2 7.37767 2.18451 5.45034
47 2 5.50551 1.04779 6.32544
48 2 5.62277 1.09441 8.58777
49 2 9.28713 3.23659 9.28465
50 2 7.33032 0.076867 11.6689
51 2 7.33133 2.21921 12.4656
52 2 7.33152 2.25004 14.6957
53 2 5.54282 1.09128 15.4199
54 2 5.17415 1.5641 17.5746
55 2 5.55075 3.20473 0
56 2 9.25125 3.20473 2.35169
57 2 9.25125 5.34121 3.13559
58 2 9.34824 5.34873 5.4381
59 2 7.47691 4.31524 6.22109
60 2 7.38844 4.3715 8.54863
61 2 11.149 6.39015 9.34859
62 2 9.16142 3.26866 11.561
63 2 9.18567 5.44872 12.4583
64 2 9.2046 5.36523 14.9387
65 2 7.30406 4.34001 15.6015
66 2 6.33663 3.87162 17.7168
67 3 2.27837 0.690001 25.5665
68 3 -0.128612 4.71495 27.7663
69 3 -1.00344 3.88051 24.8015
70 3 4.3331 -0.0571584 23.1702
71 3 0.740321 2.91656 23.3309
72 3 2.19791 6.04234 25.7685
73 3 7.53658 -0.248172 23.0942
74 3 3.8319 3.21513 23.9432
75 3 4.36236 4.73155 27.3447
ITEM: TIMESTEP
800
ITEM: NUMBER OF ATOMS
75
ITEM: BOX BOUNDS xy xz yz pp pp ff
-3.7004999999999999e+00 7.4009999999999998e+00 -3.7004999999999999e+00
0.0000000000000000e+00 6.4094540134086300e+00 0.0000000000000000e+00
0.0000000000000000e+00 4.0329638543820927e+01 0.0000000000000000e+00
ITEM: ATOMS id type xu yu zu
1 1 -0.0245675 0.0402982 20.2503
2 1 1.20695 0.77028 20.0186
3 1 -1.27554 2.17669 20.3925
4 1 -0.0438408 2.85214 20.4429
5 1 -2.57511 4.30959 20.28
6 1 -1.32088 5.05105 20.3716
7 1 2.38953 0.0711494 20.246
8 1 3.73566 0.715022 20.2271
9 1 1.17491 2.15489 20.255
10 1 2.40401 2.85667 20.3679
11 1 -0.115263 4.32902 20.4812
12 1 1.16713 4.97336 20.4778
13 1 4.92763 0.0260659 20.3222
14 1 6.0951 0.697697 20.2014
15 1 3.61605 2.16698 20.3842
16 1 4.88991 2.87369 20.3418
17 1 2.44852 4.31582 20.4245
18 1 3.6382 5.02512 20.3509
19 2 0 0 0
20 2 3.7005 0 2.35169
21 2 3.7005 2.13648 3.13559
22 2 3.71914 2.09129 5.44885
23 2 1.78442 1.09743 6.25359
24 2 1.79198 1.13104 8.55932
25 2 5.63879 3.24999 9.29493
26 2 3.59708 0.1211 11.6317
27 2 3.66864 2.23693 12.2502
28 2 3.68247 2.18282 14.4332
29 2 1.93802 1.19872 15.4264
30 2 2.80472 1.41611 17.587
31 2 1.85025 3.20473 0
32 2 5.55075 3.20473 2.35169
33 2 5.55075 5.34121 3.13559
34 2 5.59111 5.35228 5.42081
35 2 3.77761 4.22256 6.21716
36 2 3.74383 4.25183 8.49929
37 2 7.34621 6.53026 9.36248
38 2 5.57271 3.25971 11.5645
39 2 5.50022 5.3659 12.4566
40 2 5.53555 5.43257 14.7967
41 2 3.65648 4.38501 15.3599
42 2 3.85639 3.66172 17.5381
43 2 3.7005 0 0
44 2 7.401 0 2.35169
45 2 7.401 2.13648 3.13559
46 2 7.36967 2.16649 5.42417
47 2 5.59807 1.09532 6.24089
48 2 5.54955 1.10073 8.56803
49 2 9.20675 3.30937 9.30838
50 2 7.35904 0.0427891 11.6499
51 2 7.36823 2.15226 12.4292
52 2 7.44817 2.16113 14.7479
53 2 5.5542 1.08128 15.3363
54 2 5.11383 1.46754 17.5402
55 2 5.55075 3.20473 0
56 2 9.25125 3.20473 2.35169
57 2 9.25125 5.34121 3.13559
58 2 9.32789 5.37318 5.3417
59 2 7.48389 4.33643 6.23799
60 2 7.44339 4.40624 8.51417
61 2 11.0264 6.38472 9.35489
62 2 9.15739 3.37985 11.681
63 2 9.11679 5.45303 12.6039
64 2 9.13473 5.32078 14.856
65 2 7.28132 4.32171 15.6934
66 2 6.27372 3.88316 17.6924
67 3 2.30224 0.441792 25.6749
68 3 0.0988916 4.92705 28.1739
69 3 -1.20391 3.99507 24.9223
70 3 4.38552 -0.0301357 23.5887
71 3 0.923003 2.91532 23.3898
72 3 2.08929 6.02356 25.8658
73 3 7.65373 -0.235061 23.3456
74 3 3.63419 3.03177 23.9118
75 3 4.52418 4.81586 27.4902
ITEM: TIMESTEP
900
ITEM: NUMBER OF ATOMS
75
ITEM: BOX BOUNDS xy xz yz pp pp ff
-3.7004999999999999e+00 7.4009999999999998e+00 -3.7004999999999999e+00
0.0000000000000000e+00 6.4094540134086300e+00 0.0000000000000000e+00
0.0000000000000000e+00 4.0329638543820927e+01 0.0000000000000000e+00
ITEM: ATOMS id type xu yu zu
1 1 -0.0259078 0.0440446 20.2608
2 1 1.22922 0.732544 20.3067
3 1 -1.25338 2.14857 20.3439
4 1 -0.000957499 2.86347 20.3616
5 1 -2.46172 4.32598 20.4214
6 1 -1.21827 4.98466 20.3687
7 1 2.44652 0.0357585 20.2481
8 1 3.67358 0.769276 20.315
9 1 1.19836 2.10987 20.254
10 1 2.42494 2.88274 20.2034
11 1 0.0076734 4.32642 20.3635
12 1 1.23287 5.07309 20.3975
13 1 4.92238 0.111142 20.3958
14 1 6.14743 0.743291 20.432
15 1 3.65822 2.17972 20.2642
16 1 4.92368 2.91602 20.3724
17 1 2.46611 4.33368 20.3095
18 1 3.6809 5.03579 20.213
19 2 0 0 0
20 2 3.7005 0 2.35169
21 2 3.7005 2.13648 3.13559
22 2 3.74427 2.15649 5.42384
23 2 1.90569 1.1014 6.22517
24 2 1.76025 1.16508 8.56141
25 2 5.56101 3.29218 9.32604
26 2 3.66181 0.0625625 11.6096
27 2 3.62491 2.23471 12.2345
28 2 3.66555 2.25982 14.4285
29 2 1.94871 1.12489 15.5652
30 2 2.78582 1.54726 17.5682
31 2 1.85025 3.20473 0
32 2 5.55075 3.20473 2.35169
33 2 5.55075 5.34121 3.13559
34 2 5.56415 5.3919 5.40629
35 2 3.76202 4.30049 6.2268
36 2 3.68073 4.33345 8.53529
37 2 7.3365 6.50098 9.30587
38 2 5.54624 3.26147 11.6333
39 2 5.55078 5.37425 12.4612
40 2 5.5069 5.36402 14.8323
41 2 3.60499 4.18129 15.3529
42 2 3.8171 3.6988 17.5022
43 2 3.7005 0 0
44 2 7.401 0 2.35169
45 2 7.401 2.13648 3.13559
46 2 7.47121 2.189 5.41851
47 2 5.59546 1.07312 6.21166
48 2 5.49572 1.12169 8.50522
49 2 9.23035 3.28392 9.42937
50 2 7.31817 -0.0308152 11.6969
51 2 7.43919 2.18813 12.4551
52 2 7.45218 2.17842 14.8182
53 2 5.4683 1.21186 15.3813
54 2 5.16375 1.59375 17.4837
55 2 5.55075 3.20473 0
56 2 9.25125 3.20473 2.35169
57 2 9.25125 5.34121 3.13559
58 2 9.29313 5.34475 5.48911
59 2 7.4115 4.3124 6.20552
60 2 7.42789 4.36313 8.5012
61 2 11.0675 6.45857 9.36761
62 2 9.21549 3.32634 11.6857
63 2 9.15798 5.4369 12.5069
64 2 9.10429 5.39516 14.8641
65 2 7.23971 4.16716 15.7582
66 2 6.15056 3.64432 17.7197
67 3 2.33823 0.338475 25.82
68 3 0.241883 5.14929 28.3998
69 3 -1.33827 4.13848 25.0647
70 3 4.34742 -0.0360121 23.6708
71 3 1.02522 2.85571 23.4321
72 3 2.01141 5.93058 26.0995
73 3 7.79064 -0.231457 23.5713
74 3 3.56606 2.89053 23.8029
75 3 4.64693 4.85429 27.7008
ITEM: TIMESTEP
1000
ITEM: NUMBER OF ATOMS
75
ITEM: BOX BOUNDS xy xz yz pp pp ff
-3.7004999999999999e+00 7.4009999999999998e+00 -3.7004999999999999e+00
0.0000000000000000e+00 6.4094540134086300e+00 0.0000000000000000e+00
0.0000000000000000e+00 4.0329638543820927e+01 0.0000000000000000e+00
ITEM: ATOMS id type xu yu zu
1 1 0.00117467 0.0677773 20.345
2 1 1.21725 0.803419 20.4016
3 1 -1.18148 2.15929 20.4181
4 1 -0.00257815 2.9038 20.2443
5 1 -2.43728 4.32668 20.3347
6 1 -1.24254 5.01582 20.3466
7 1 2.47616 0.089005 20.443
8 1 3.72394 0.768352 20.4579
9 1 1.26348 2.22362 20.292
10 1 2.55424 2.91043 20.3115
11 1 0.0114881 4.29817 20.2437
12 1 1.23987 5.0452 20.0782
13 1 4.95908 0.0234489 20.2193
14 1 6.17989 0.783238 20.3099
15 1 3.73968 2.14913 20.3989
16 1 4.94769 2.90996 20.444
17 1 2.48881 4.31274 20.1707
18 1 3.70698 5.05287 20.3789
19 2 0 0 0
20 2 3.7005 0 2.35169
21 2 3.7005 2.13648 3.13559
22 2 3.76512 2.21642 5.4275
23 2 1.935 1.13515 6.29429
24 2 1.82294 1.13901 8.56174
25 2 5.48179 3.28397 9.33925
26 2 3.66717 0.0155439 11.625
27 2 3.69767 2.18096 12.3585
28 2 3.64232 2.12017 14.5595
29 2 1.9091 1.06627 15.4985
30 2 2.71307 1.63354 17.7366
31 2 1.85025 3.20473 0
32 2 5.55075 3.20473 2.35169
33 2 5.55075 5.34121 3.13559
34 2 5.57014 5.39915 5.4523
35 2 3.68307 4.35036 6.31934
36 2 3.66634 4.40726 8.63157
37 2 7.3672 6.43794 9.28493
38 2 5.56591 3.24576 11.6892
39 2 5.51629 5.39984 12.5398
40 2 5.5092 5.32402 14.7709
41 2 3.55073 4.32025 15.4362
42 2 3.73277 3.70555 17.5608
43 2 3.7005 0 0
44 2 7.401 0 2.35169
45 2 7.401 2.13648 3.13559
46 2 7.46824 2.13758 5.43922
47 2 5.59583 1.11653 6.2613
48 2 5.5472 1.17673 8.5532
49 2 9.24431 3.27552 9.3594
50 2 7.40785 0.0764955 11.7196
51 2 7.38549 2.16589 12.5578
52 2 7.43341 2.12036 14.7751
53 2 5.46947 1.19001 15.3677
54 2 5.10558 1.55063 17.6281
55 2 5.55075 3.20473 0
56 2 9.25125 3.20473 2.35169
57 2 9.25125 5.34121 3.13559
58 2 9.25206 5.36176 5.45669
59 2 7.38537 4.28452 6.25122
60 2 7.32003 4.2969 8.57166
61 2 11.0516 6.53446 9.40457
62 2 9.2022 3.25636 11.6653
63 2 9.22734 5.39067 12.5229
64 2 9.08504 5.41038 14.934
65 2 7.29769 4.23585 15.7605
66 2 6.14734 3.56858 17.733
67 3 2.40013 0.498135 26.0086
68 3 0.319089 5.34075 28.6582
69 3 -1.35929 4.12839 25.1005
70 3 4.28837 -0.120872 23.484
71 3 0.86651 2.82846 23.4559
72 3 2.02231 5.80362 26.3123
73 3 7.87113 -0.269359 23.6653
74 3 3.73922 2.82599 23.6392
75 3 4.67224 4.85579 27.9948
ITEM: TIMESTEP
1100
ITEM: NUMBER OF ATOMS
75
ITEM: BOX BOUNDS xy xz yz pp pp ff
-3.7004999999999999e+00 7.4009999999999998e+00 -3.7004999999999999e+00
0.0000000000000000e+00 6.4094540134086300e+00 0.0000000000000000e+00
0.0000000000000000e+00 4.0329638543820927e+01 0.0000000000000000e+00
ITEM: ATOMS id type xu yu zu
1 1 0.0564561 0.0694575 20.2474
2 1 1.29424 0.759615 20.2948
3 1 -1.16637 2.19835 20.2881
4 1 0.0367209 2.9391 20.3784
5 1 -2.41998 4.35513 20.3964
6 1 -1.16905 5.04784 20.3309
7 1 2.55889 0.0865866 20.3352
8 1 3.75905 0.822313 20.2691
9 1 1.25709 2.18568 20.3993
10 1 2.49753 2.92123 20.4391
11 1 -0.000978659 4.33038 20.2215
12 1 1.2617 5.05362 20.2572
13 1 4.99944 0.0637007 20.2573
14 1 6.24799 0.806826 20.2398
15 1 3.73341 2.20615 20.4853
16 1 4.96004 2.89918 20.4252
17 1 2.53474 4.33025 20.3061
18 1 3.73751 5.03763 20.2709
19 2 0 0 0
20 2 3.7005 0 2.35169
21 2 3.7005 2.13648 3.13559
22 2 3.73703 2.23851 5.47671
23 2 1.88199 1.1218 6.23667
24 2 1.90388 1.12391 8.57919
25 2 5.47062 3.27391 9.44104
26 2 3.71391 0.00960763 11.6893
27 2 3.69941 2.09869 12.4795
28 2 3.64918 2.2157 14.6778
29 2 1.88881 1.0692 15.649
30 2 2.54152 1.55071 17.7467
31 2 1.85025 3.20473 0
32 2 5.55075 3.20473 2.35169
33 2 5.55075 5.34121 3.13559
34 2 5.54259 5.37658 5.46821
35 2 3.69542 4.36899 6.29408
36 2 3.63096 4.39947 8.59932
37 2 7.42982 6.43773 9.40107
38 2 5.51226 3.26959 11.7106
39 2 5.54811 5.36389 12.4888
40 2 5.50559 5.33253 14.8609
41 2 3.58797 4.32274 15.4959
42 2 3.77301 3.71173 17.6417
43 2 3.7005 0 0
44 2 7.401 0 2.35169
45 2 7.401 2.13648 3.13559
46 2 7.40238 2.14857 5.44047
47 2 5.55613 1.12639 6.25767
48 2 5.49923 1.12035 8.58884
49 2 9.18689 3.28334 9.32173
50 2 7.38214 0.0732971 11.7403
51 2 7.37504 2.21571 12.5234
52 2 7.40928 2.15388 14.8928
53 2 5.46273 1.04371 15.5571
54 2 4.96835 1.41613 17.6163
55 2 5.55075 3.20473 0
56 2 9.25125 3.20473 2.35169
57 2 9.25125 5.34121 3.13559
58 2 9.21092 5.4224 5.39872
59 2 7.40835 4.3049 6.26434
60 2 7.36682 4.31142 8.55096
61 2 11.0899 6.5356 9.44799
62 2 9.25779 3.24474 11.7006
63 2 9.23651 5.35625 12.6117
64 2 9.09906 5.37193 14.9026
65 2 7.2548 4.24949 15.7781
66 2 6.21968 3.71248 17.7299
67 3 2.52798 0.71701 26.2199
68 3 0.274907 5.51603 28.8451
69 3 -1.3081 4.09204 25.1313
70 3 4.25611 -0.3067 23.2965
71 3 0.659378 2.83596 23.4503
72 3 2.01866 5.67796 26.4434
73 3 7.88686 -0.327946 23.6494
74 3 3.93937 2.81897 23.4718
75 3 4.72785 4.86758 28.3363
ITEM: TIMESTEP
1200
ITEM: NUMBER OF ATOMS
75
ITEM: BOX BOUNDS xy xz yz pp pp ff
-3.7004999999999999e+00 7.4009999999999998e+00 -3.7004999999999999e+00
0.0000000000000000e+00 6.4094540134086300e+00 0.0000000000000000e+00
0.0000000000000000e+00 4.0329638543820927e+01 0.0000000000000000e+00
ITEM: ATOMS id type xu yu zu
1 1 0.0757985 0.102804 20.1818
2 1 1.29567 0.780865 20.2648
3 1 -1.13414 2.23771 20.3798
4 1 0.0889529 2.92427 20.3608
5 1 -2.39077 4.38275 20.3469
6 1 -1.13928 5.02828 20.3446
7 1 2.49111 0.0278047 20.2434
8 1 3.72812 0.760724 20.3301
9 1 1.3025 2.20555 20.3224
10 1 2.5335 2.92848 20.3482
11 1 0.0903889 4.3583 20.4765
12 1 1.31286 5.07888 20.3817
13 1 4.9748 0.0685045 20.308
14 1 6.23422 0.786232 20.2634
15 1 3.78152 2.23086 20.2335