ITEM: TIMESTEP
0
ITEM: NUMBER OF ATOMS
6
ITEM: BOX BOUNDS pp pp pp
0.0000000000000000e+00 2.0000000000000000e+01
0.0000000000000000e+00 2.0000000000000000e+01
0.0000000000000000e+00 2.0000000000000000e+01
ITEM: ATOMS id type xs ys zs
1 1 0.4325 0.4325 0.5
2 1 0.5675 0.4325 0.5
3 2 0.4325 0.5675 0.5
4 2 0.5675 0.5675 0.5
5 3 0.5 0.5 0.635
6 3 0.5 0.5 0.365
ITEM: TIMESTEP
10
ITEM: NUMBER OF ATOMS
6
ITEM: BOX BOUNDS pp pp pp
0.0000000000000000e+00 2.0000000000000000e+01
0.0000000000000000e+00 2.0000000000000000e+01
0.0000000000000000e+00 2.0000000000000000e+01
ITEM: ATOMS id type xs ys zs
1 1 0.409397 0.461896 0.5
2 1 0.590603 0.461896 0.5
3 2 0.443768 0.534443 0.5
4 2 0.556232 0.534443 0.5
5 3 0.5 0.50366 0.634791
6 3 0.5 0.50366 0.365209
ITEM: TIMESTEP
20
ITEM: NUMBER OF ATOMS
6
ITEM: BOX BOUNDS pp pp pp
0.0000000000000000e+00 2.0000000000000000e+01
0.0000000000000000e+00 2.0000000000000000e+01
0.0000000000000000e+00 2.0000000000000000e+01
ITEM: ATOMS id type xs ys zs
1 1 0.409373 0.46203 0.499697
2 1 0.590818 0.461957 0.499809
3 2 0.443851 0.534458 0.499936
4 2 0.556171 0.53446 0.500156
5 3 0.500043 0.503603 0.63518
6 3 0.499542 0.503254 0.365304
ITEM: TIMESTEP
30
ITEM: NUMBER OF ATOMS
6
ITEM: BOX BOUNDS pp pp pp
0.0000000000000000e+00 2.0000000000000000e+01
0.0000000000000000e+00 2.0000000000000000e+01
0.0000000000000000e+00 2.0000000000000000e+01
ITEM: ATOMS id type xs ys zs
1 1 0.408831 0.461789 0.499393
2 1 0.591508 0.461718 0.499618
3 2 0.444011 0.534619 0.499872
4 2 0.556049 0.534593 0.500312
5 3 0.500088 0.503596 0.635506
6 3 0.499084 0.502899 0.36546
ITEM: TIMESTEP
40
ITEM: NUMBER OF ATOMS
6
ITEM: BOX BOUNDS pp pp pp
0.0000000000000000e+00 2.0000000000000000e+01
0.0000000000000000e+00 2.0000000000000000e+01
0.0000000000000000e+00 2.0000000000000000e+01
ITEM: ATOMS id type xs ys zs
1 1 0.407984 0.461557 0.499095
2 1 0.592447 0.461581 0.499432
3 2 0.44416 0.53476 0.499806
4 2 0.555961 0.534673 0.500468
5 3 0.500135 0.50364 0.635756
6 3 0.498629 0.502602 0.365683
ITEM: TIMESTEP
50
ITEM: NUMBER OF ATOMS
6
ITEM: BOX BOUNDS pp pp pp
0.0000000000000000e+00 2.0000000000000000e+01
0.0000000000000000e+00 2.0000000000000000e+01
0.0000000000000000e+00 2.0000000000000000e+01
ITEM: ATOMS id type xs ys zs
1 1 0.40711 0.461805 0.498812
2 1 0.593388 0.461935 0.49926
3 2 0.444179 0.534678 0.499738
4 2 0.556011 0.534533 0.500618
5 3 0.500182 0.503732 0.635923
6 3 0.498184 0.502367 0.365971
ITEM: TIMESTEP
60
ITEM: NUMBER OF ATOMS
6
ITEM: BOX BOUNDS pp pp pp
0.0000000000000000e+00 2.0000000000000000e+01
0.0000000000000000e+00 2.0000000000000000e+01
0.0000000000000000e+00 2.0000000000000000e+01
ITEM: ATOMS id type xs ys zs
1 1 0.406294 0.462574 0.498554
2 1 0.594286 0.462729 0.499109
3 2 0.44405 0.534354 0.499666
4 2 0.556199 0.534197 0.50076
5 3 0.500229 0.503868 0.636004
6 3 0.497757 0.502198 0.366317
ITEM: TIMESTEP
70
ITEM: NUMBER OF ATOMS
6
ITEM: BOX BOUNDS pp pp pp
0.0000000000000000e+00 2.0000000000000000e+01
0.0000000000000000e+00 2.0000000000000000e+01
0.0000000000000000e+00 2.0000000000000000e+01
ITEM: ATOMS id type xs ys zs
1 1 0.405391 0.463426 0.498323
2 1 0.595286 0.463524 0.498973
3 2 0.443869 0.533975 0.499595
4 2 0.556426 0.533853 0.500894
5 3 0.500275 0.504041 0.63599
6 3 0.497361 0.502099 0.366714
ITEM: TIMESTEP
80
ITEM: NUMBER OF ATOMS
6
ITEM: BOX BOUNDS pp pp pp
0.0000000000000000e+00 2.0000000000000000e+01
0.0000000000000000e+00 2.0000000000000000e+01
0.0000000000000000e+00 2.0000000000000000e+01
ITEM: ATOMS id type xs ys zs
1 1 0.404251 0.463941 0.498118
2 1 0.596499 0.463975 0.498849
3 2 0.443734 0.533723 0.499527
4 2 0.556606 0.53365 0.501019
5 3 0.500322 0.504243 0.635887
6 3 0.497004 0.502066 0.367152
ITEM: TIMESTEP
90
ITEM: NUMBER OF ATOMS
6
ITEM: BOX BOUNDS pp pp pp
0.0000000000000000e+00 2.0000000000000000e+01
0.0000000000000000e+00 2.0000000000000000e+01
0.0000000000000000e+00 2.0000000000000000e+01
ITEM: ATOMS id type xs ys zs
1 1 0.402891 0.464068 0.497938
2 1 0.597876 0.464085 0.498733
3 2 0.443656 0.53362 0.499463
4 2 0.556744 0.533588 0.50114
5 3 0.500369 0.504471 0.635694
6 3 0.496686 0.502096 0.367629
ITEM: TIMESTEP
100
ITEM: NUMBER OF ATOMS
6
ITEM: BOX BOUNDS pp pp pp
0.0000000000000000e+00 2.0000000000000000e+01
0.0000000000000000e+00 2.0000000000000000e+01
0.0000000000000000e+00 2.0000000000000000e+01
ITEM: ATOMS id type xs ys zs
1 1 0.401496 0.464071 0.497784
2 1 0.599238 0.464123 0.49863
3 2 0.443562 0.533555 0.499397
4 2 0.556912 0.533551 0.501254
5 3 0.500416 0.504724 0.635408
6 3 0.496395 0.502185 0.368161
ITEM: TIMESTEP
110
ITEM: NUMBER OF ATOMS
6
ITEM: BOX BOUNDS pp pp pp
0.0000000000000000e+00 2.0000000000000000e+01
0.0000000000000000e+00 2.0000000000000000e+01
0.0000000000000000e+00 2.0000000000000000e+01
ITEM: ATOMS id type xs ys zs
1 1 0.400294 0.464277 0.49766
2 1 0.600386 0.464375 0.498548
3 2 0.443356 0.533391 0.499326
4 2 0.557197 0.533414 0.501362
5 3 0.500462 0.505004 0.635029
6 3 0.496123 0.502329 0.368751
