thermo          100
thermo_style    custom step temp c_ctemp pe ke etotal press
dump            traj all custom ${DUMPEVERY} trajectories/${MODEL}_ramp_${STAGE}.lammpstrj id type xu yu zu
dump            traj all custom 100 trajectories/${MODEL}_ramp_${STAGE}.lammpstrj id type xu yu zu
dump            traj all custom 100 trajectories/model_a_ramp_${STAGE}.lammpstrj id type xu yu zu
dump            traj all custom 100 trajectories/model_a_ramp_600K.lammpstrj id type xu yu zu
dump_modify     traj sort id

# CONTINUOUS HEAT-UP: NO velocity re-initialization. The carried-over state is
# brought to TSTAGE by the thermostat (the start structure is ~300 K from
# Phase 4/5 equilibration; each later stage continues from the previous final).
fix             nvt mobile nvt temp ${TSTAGE} ${TSTAGE} ${TDAMP}
fix             nvt mobile nvt temp 600 ${TSTAGE} ${TDAMP}
fix             nvt mobile nvt temp 600 600 ${TDAMP}
fix             nvt mobile nvt temp 600 600 25
timestep        ${DT}
timestep        0.25
run             ${NSTEPS}
run             40000

CITE-CITE-CITE-CITE-CITE-CITE-CITE-CITE-CITE-CITE-CITE-CITE-CITE

Your simulation uses code contributions which should be cited:

- pair reaxff command: doi:10.1016/j.parco.2011.08.005

@Article{Aktulga12,
 author = {H. M. Aktulga and J. C. Fogarty and S. A. Pandit and A. Y. Grama},
 title = {Parallel Reactive Molecular Dynamics: {N}umerical Methods and Algorithmic Techniques},
 journal = {Parallel Computing},
 year =    2012,
 volume =  38,
 number =  {4--5},
 pages =   {245--259}
}

- fix qeq/reaxff command: doi:10.1016/j.parco.2011.08.005

@Article{Aktulga12,
 author = {H. M. Aktulga and J. C. Fogarty and S. A. Pandit and A. Y. Grama},
 title = {Parallel Reactive Molecular Dynamics: {N}umerical Methods and Algorithmic Techniques},
 journal = {Parallel Computing},
 year =    2012,
 volume =  38,
 pages =   {245--259}
}

CITE-CITE-CITE-CITE-CITE-CITE-CITE-CITE-CITE-CITE-CITE-CITE-CITE

WARNING: Fix recenter should come after all other integration fixes (src/fix_recenter.cpp:130)
Neighbor list info ...
  update: every = 1 steps, delay = 0 steps, check = yes
  max neighbors/atom: 2000, page size: 100000
  master list distance cutoff = 12
  ghost atom cutoff = 12
  binsize = 6, bins = 2 2 7
  2 neighbor lists, perpetual/occasional/extra = 2 0 0
  (1) pair reaxff, perpetual
      attributes: half, newton off, ghost
      pair build: half/bin/ghost/newtoff
      stencil: full/ghost/bin/3d
      bin: standard
  (2) fix qeq/reaxff, perpetual, copy from (1)
      attributes: half, newton off
      pair build: copy
      stencil: none
      bin: none
Per MPI rank memory allocation (min/avg/max) = 91.18 | 91.18 | 91.18 Mbytes
   Step          Temp         c_ctemp         PotEng         KinEng         TotEng         Press     
         0   243.23399      294.44115     -7805.145       50.027368     -7755.1176     -7116.1512    
       100   250.55943      303.30878     -7789.1554      51.534034     -7737.6214     -6654.0928    
       200   343.11324      415.34761     -7782.2832      70.570122     -7711.713      -736.19462    
       300   436.98027      528.97612     -7768.6716      89.876308     -7678.7953      6632.7657    
       400   498.94426      603.98516     -7751.6968      102.62081     -7649.0759      9475.0537    
       500   563.45008      682.07115     -7743.1835      115.8881      -7627.2954      12403.454    
       600   482.91298      584.57887     -7723.2946      99.323559     -7623.9711      18900.51     
       700   520.8723       630.52963     -7750.168       107.13088     -7643.0372      3390.2554    
       800   472.12041      571.51418     -7760.7058      97.103787     -7663.602       717.13779    
       900   410.90656      497.4132      -7749.387       84.513573     -7664.8735      5451.5996    
      1000   498.28229      603.18383     -7749.085       102.48466     -7646.6003      6282.3025    
      1100   569.35195      689.21551     -7750.3375      117.10197     -7633.2355      2803.2866    
      1200   505.64315      612.09433     -7730.9297      103.99861     -7626.9311      2214.9014    
      1300   570.43067      690.52133     -7715.334       117.32384     -7598.0102     -9249.7611    
      1400   556.13077      673.21094     -7716.6493      114.38269     -7602.2666     -13422.382    
      1500   559.44886      677.22757     -7743.4691      115.06514     -7628.404       8236.647     
      1600   487.79618      590.49012     -7734.093       100.32792     -7633.7651     -3567.6997    
      1700   512.48492      620.37649     -7731.9751      105.40579     -7626.5693     -4398.3888    
      1800   519.70647      629.11836     -7727.1518      106.89109     -7620.2607     -9523.2523    
      1900   570.88973      691.07704     -7739.3203      117.41825     -7621.902      -9544.3005    
      2000   488.76875      591.66744     -7747.9933      100.52795     -7647.4653     -10058.925    
      2100   462.98189      560.45177     -7753.4879      95.224215     -7658.2637      3891.2256    
      2200   484.33587      586.30131     -7754.0559      99.616212     -7654.4397      6866.2998    
      2300   571.04004      691.25899     -7747.7129      117.44917     -7630.2637      8208.533     
      2400   582.73314      705.4138      -7738.0639      119.85416     -7618.2097     -430.53996    
      2500   535.17576      647.84434     -7745.5811      110.07275     -7635.5084     -895.98898    
      2600   463.01189      560.48808     -7742.6767      95.230384     -7647.4463      4347.496     
      2700   525.03304      635.56631     -7758.7374      107.98664     -7650.7508     -320.01107    
      2800   452.75478      548.07158     -7755.5384      93.120744     -7662.4177     -5953.5507    
      2900   510.03719      617.41344     -7767.738       104.90235     -7662.8356     -177.79294    
      3000   483.35318      585.11174     -7750.045       99.414097     -7650.6309     -2224.1302    
      3100   642.3692       777.60482     -7761.7079      132.11986     -7629.588      -7748.9937    
      3200   458.5315       555.06444     -7744.5897      94.308875     -7650.2808     -14357.813    
      3300   497.40149      602.1176      -7757.5009      102.3035      -7655.1974     -6627.5665    
      3400   439.89057      532.49911     -7744.3163      90.474886     -7653.8414     -8851.0759    
      3500   471.49011      570.75119     -7748.2323      96.97415      -7651.2581     -10142.468    
      3600   497.06945      601.71565     -7746.211       102.2352      -7643.9758     -10260.814    
      3700   578.25324      699.99077     -7730.7646      118.93275     -7611.8318     -6083.1812    
      3800   570.64682      690.783       -7720.1169      117.3683      -7602.7487      628.35139    
      3900   530.32243      641.96926     -7729.5438      109.07454     -7620.4693      3934.0066    
      4000   565.69249      684.78564     -7747.4633      116.34931     -7631.114      -5610.6823    
      4100   489.26884      592.27281     -7752.7642      100.63081     -7652.1334      11895.466    
      4200   461.1552       558.24051     -7754.384       94.848508     -7659.5355      14282.922    
      4300   424.47608      513.83946     -7737.0422      87.304496     -7649.7377     -1151.304     
      4400   503.10135      609.01743     -7726.9584      103.47582     -7623.4826      2940.5988    
      4500   482.46651      584.03841     -7717.0192      99.231731     -7617.7875     -1954.6203    
      4600   570.85395      691.03373     -7735.3494      117.4109      -7617.9385     -9347.9556    
      4700   499.24508      604.3493      -7742.279       102.68268     -7639.5963     -578.55715    
      4800   436.62175      528.54211     -7741.2902      89.802568     -7651.4876     -5983.4409    
      4900   470.56563      569.63208     -7739.7138      96.784006     -7642.9298     -10719.855    
      5000   519.64495      629.04388     -7735.5964      106.87844     -7628.7179     -11296.688    
      5100   542.07367      656.19444     -7746.284       111.49149     -7634.7925     -18942.39     
      5200   451.98822      547.14363     -7750.805       92.963081     -7657.8419     -13104.076    
      5300   477.01531      577.43958     -7752.9845      98.110549     -7654.874       653.43275    
      5400   485.4316       587.62772     -7754.3192      99.841577     -7654.4776     -1228.0518    
      5500   477.80036      578.38991     -7757.6408      98.272017     -7659.3688     -8509.7866    
      5600   539.24132      652.76581     -7761.5404      110.90894     -7650.6315     -10825.204    
      5700   469.62848      568.49764     -7724.6487      96.591258     -7628.0575     -540.24107    
      5800   570.1798       690.21765     -7737.6334      117.27224     -7620.3611     -2403.757     
      5900   547.38013      662.61805     -7759.1524      112.5829      -7646.5695     -3526.6128    
      6000   571.76828      692.14055     -7781.2378      117.59895     -7663.6389      255.52358    
      6100   446.03924      539.94223     -7762.8089      91.739518     -7671.0694      6275.6089    
      6200   535.12074      647.77774     -7765.0636      110.06144     -7655.0021      6959.8363    
      6300   480.10208      581.1762      -7741.8261      98.745424     -7643.0807      100.96604    
      6400   582.11018      704.65969     -7749.9404      119.72603     -7630.2144     -231.72703    
      6500   505.12749      611.47012     -7760.9832      103.89255     -7657.0907     -4254.7973    
      6600   417.27096      505.11748     -7761.6591      85.822577     -7675.8365     -2047.406     
      6700   426.92366      516.80233     -7749.4673      87.807906     -7661.6594     -11214.702    
      6800   464.14448      561.85911     -7740.3685      95.463331     -7644.9051     -8924.9052    
      6900   514.74177      623.10846     -7746.0674      105.86997     -7640.1974     -14510.306    
      7000   523.95288      634.25875     -7744.7756      107.76448     -7637.0112     -4323.5652    
      7100   587.74204      711.47721     -7746.6653      120.88437     -7625.7809     -17103.96     
      7200   433.9855       525.35087     -7716.6788      89.260355     -7627.4184     -14862.221    
      7300   532.00244      644.00295     -7740.479       109.42008     -7631.0589     -12350.254    
      7400   514.98609      623.40421     -7746.5126      105.92022     -7640.5924     -13845.03     
      7500   475.22379      575.2709      -7757.4064      97.742078     -7659.6644     -13034.64     
      7600   394.02461      476.97716     -7748.1869      81.041364     -7667.1456     -8351.4148    
      7700   504.12133      610.25213     -7745.8984      103.6856      -7642.2128     -8915.4073    
      7800   535.64071      648.40718     -7747.5834      110.16838     -7637.4151     -9722.2815    
      7900   499.21807      604.31661     -7760.5694      102.67712     -7657.8922     -8639.1486    
      8000   445.56016      539.3623      -7759.6658      91.640984     -7668.0249     -2321.8821    
      8100   479.49829      580.4453      -7754.6638      98.62124      -7656.0426     -4666.9049    
      8200   540.5591       654.36102     -7754.4034      111.17998     -7643.2235      2436.5726    
      8300   408.32545      494.2887      -7749.4514      83.982702     -7665.4687     -2138.842     
      8400   407.28111      493.02451     -7768.4788      83.767907     -7684.7109      8320.3696    
      8500   435.09273      526.6912      -7761.5629      89.488087     -7672.0748      1377.6075    
      8600   495.85546      600.24608     -7761.1611      101.98551     -7659.1756     -9422.8125    
      8700   451.73446      546.83646     -7756.7637      92.910889     -7663.8528     -9483.5576    
      8800   504.04298      610.15729     -7777.9969      103.66949     -7674.3274     -8480.9336    
      8900   426.91926      516.797       -7782.1568      87.807        -7694.3498      2224.4294    
      9000   400.02044      484.23527     -7778.2711      82.274562     -7695.9966     -3037.5739    
      9100   439.84801      532.44759     -7755.7094      90.466132     -7665.2433     -11859.55     
      9200   527.89434      639.02999     -7758.5148      108.57514     -7649.9397     -9307.4919    
      9300   606.87126      734.63363     -7767.5586      124.81879     -7642.7398     -9503.5002    
      9400   454.17887      549.79547     -7749.5602      93.413645     -7656.1466     -1970.8769    
      9500   451.08142      546.04593     -7747.3206      92.776575     -7654.544      -19058.704    
      9600   577.05796      698.54384     -7751.5664      118.68691     -7632.8795     -10133.712    
      9700   543.60437      658.0474      -7746.2219      111.80632     -7634.4156     -6684.8443    
      9800   452.89391      548.23999     -7748.9734      93.149359     -7655.8241      3284.5875    
      9900   473.65649      573.37364     -7757.5324      97.419721     -7660.1127      673.99598    
     10000   431.2527       522.04274     -7743.3331      88.698284     -7654.6348     -8423.3514    
     10100   512.92688      620.91148     -7736.3926      105.49669     -7630.8959     -2835.6493    
     10200   661.12841      800.31334     -7746.8513      135.97818     -7610.8731      3233.6898    
     10300   544.62658      659.2848      -7739.2994      112.01656     -7627.2828     -2081.5827    
     10400   480.71571      581.91902     -7741.1176      98.871633     -7642.2459      3121.6406    
     10500   449.59659      544.2485      -7736.8759      92.47118      -7644.4047     -4310.0432    
     10600   514.87252      623.26674     -7742.957       105.89687     -7637.0601      524.87863    
     10700   616.02592      745.71558     -7748.9326      126.70168     -7622.2309     -13791.34     
     10800   576.7448       698.16476     -7747.3139      118.6225      -7628.6914     -8131.074     
     10900   484.56307      586.57635     -7760.8754      99.662942     -7661.2125     -6901.2939    
     11000   476.89156      577.28979     -7765.9083      98.085098     -7667.8232     -6821.5929    
     11100   481.54452      582.92232     -7760.3052      99.0421       -7661.2631     -1684.6339    
     11200   543.73825      658.20946     -7752.77        111.83385     -7640.9361     -12902.86     
     11300   526.99471      637.94097     -7742.8323      108.39011     -7634.4422     -18242.074    
     11400   474.39276      574.26492     -7745.5022      97.571154     -7647.931      -14478.192    
     11500   467.31429      565.69625     -7750.4873      96.115284     -7654.372      -8452.8341    
     11600   497.51723      602.2577      -7758.2843      102.3273      -7655.957      -16821.994    
     11700   454.84571      550.60271     -7753.1965      93.550799     -7659.6457     -4210.8823    
     11800   542.61033      656.84408     -7765.245       111.60186     -7653.6431     -9703.4575    
     11900   561.64287      679.88347     -7747.6977      115.5164      -7632.1813      128.92561    
     12000   543.05686      657.38462     -7734.239       111.6937      -7622.5453     -14793.591    
     12100   513.86691      622.04941     -7749.6787      105.69004     -7643.9886     -17223.749    
     12200   467.59331      566.034       -7755.4242      96.172671     -7659.2516      1640.6063    
     12300   502.56384      608.36676     -7763.2987      103.36527     -7659.9334     -6649.8726    
     12400   420.15478      508.60842     -7742.2058      86.41571      -7655.79       -14619.387    
     12500   512.67479      620.60633     -7733.3073      105.44485     -7627.8624     -6113.7079    
     12600   641.68419      776.7756      -7761.4378      131.97897     -7629.4588     -4960.5691    
     12700   500.15388      605.44944     -7741.5721      102.8696      -7638.7025     -6360.246     
     12800   545.01669      659.75705     -7752.534       112.0968      -7640.4373     -3222.1349    
     12900   454.90302      550.67208     -7740.2183      93.562586     -7646.6557     -13230.623    
     13000   375.19699      454.18583     -7735.5102      77.168976     -7658.3412     -1433.7536    
     13100   530.824        642.57643     -7759.5492      109.1777      -7650.3715      4196.4219    
     13200   538.24084      651.5547      -7735.9796      110.70316     -7625.2764     -19444.638    
     13300   478.21619      578.89329     -7727.7202      98.357543     -7629.3626     -4562.1373    
     13400   472.97113      572.544       -7734.1441      97.278759     -7636.8654     -11097.632    
     13500   538.29165      651.61621     -7760.2781      110.71362     -7649.5645     -12522.398    
     13600   429.32101      519.70438     -7766.8615      88.300982     -7678.5605     -5129.8216    
     13700   501.01472      606.4915      -7774.8287      103.04665     -7671.7821     -9900.0494    
     13800   465.81567      563.88213     -7755.1521      95.807055     -7659.345      -9370.4945    
     13900   525.30975      635.90128     -7751.9676      108.04355     -7643.924      -83.295829    
     14000   523.59229      633.82225     -7749.8031      107.69031     -7642.1128     -3089.8691    
     14100   551.24653      667.29843     -7755.3039      113.37812     -7641.9258     -1542.3555    
     14200   564.20462      682.98454     -7767.4771      116.04329     -7651.4338      3989.2344    
     14300   474.15545      573.97766     -7759.3556      97.522347     -7661.8332     -1167.4331    
     14400   477.16863      577.62519     -7762.5492      98.142085     -7664.4071     -2280.6751    
     14500   524.09642      634.43251     -7760.6202      107.794       -7652.8262      1640.2196    
     14600   590.29905      714.57254     -7750.9741      121.41029     -7629.5638     -7846.9192    
     14700   545.87421      660.79509     -7754.0786      112.27317     -7641.8055     -1250.7387    
     14800   436.96956      528.96315     -7752.378       89.874104     -7662.5039     -10716.798    
     14900   421.27083      509.95943     -7751.7138      86.645255     -7665.0685     -4725.2567    
     15000   506.08834      612.63326     -7759.8749      104.09017     -7655.7847      13.680682    
     15100   583.17076      705.94355     -7753.9886      119.94417     -7634.0444     -7308.1259    
     15200   535.09456      647.74605     -7729.9341      110.05605     -7619.8781     -6206.278     
     15300   439.6166       532.16747     -7721.2627      90.418537     -7630.8442     -17362.973    
     15400   486.32184      588.70538     -7751.9491      100.02468     -7651.9244     -2036.1337    
     15500   468.88032      567.59196     -7760.5562      96.437378     -7664.1188     -18668.336    
     15600   416.4476       504.12077     -7745.256       85.653231     -7659.6027     -13235.437    
     15700   512.15414      619.97606     -7740.4137      105.33776     -7635.076      -5195.3385    
     15800   457.17004      553.41636     -7721.4436      94.028855     -7627.4147     -12213.447    
     15900   464.12031      561.82985     -7715.6809      95.45836      -7620.2225     -8238.536     
     16000   549.24527      664.87585     -7732.1225      112.96651     -7619.156      -16163.434    
     16100   497.55387      602.30205     -7753.595       102.33484     -7651.2601     -4276.3587    
     16200   393.03575      475.78012     -7739.0831      80.837979     -7658.2451     -13046.178    
     16300   472.02039      571.3931      -7739.9314      97.083214     -7642.8482      1404.9561    
     16400   608.1546       736.18715     -7755.1819      125.08274     -7630.0991      2832.2228    
     16500   506.56141      613.20591     -7741.7076      104.18747     -7637.5201      3730.3824    
     16600   452.61127      547.89785     -7759.0959      93.091227     -7666.0047      3483.2314    
     16700   386.49785      467.86582     -7754.6128      79.493291     -7675.1195     -4864.6578    
     16800   526.26543      637.05815     -7767.7899      108.24011     -7659.5498     -7097.4637    
     16900   529.18298      640.58992     -7760.597       108.84018     -7651.7569      932.2294     
     17000   482.45111      584.01977     -7750.5053      99.228564     -7651.2767     -12155.479    
     17100   460.96258      558.00733     -7750.2449      94.80889      -7655.436      -5704.0457    
     17200   487.16542      589.72656     -7756.9973      100.19818     -7656.7992     -10480.797    
     17300   512.78193      620.73603     -7762.2445      105.46688     -7656.7776     -10701.079    
     17400   541.95477      656.05051     -7772.1561      111.46703     -7660.6891     -7818.5651    
     17500   472.09093      571.47849     -7767.4419      97.097724     -7670.3441     -7881.279     
     17600   472.19171      571.60049     -7763.2114      97.118451     -7666.093      -8096.2293    
     17700   517.6737       626.65763     -7749.8038      106.473       -7643.3308     -3394.5515    
     17800   476.94821      577.35836     -7728.009       98.09675      -7629.9123     -11083.152    
     17900   706.32188      855.02123     -7764.6415      145.27338     -7619.3681      1121.5745    
     18000   454.3507       550.00348     -7747.7486      93.448986     -7654.2996     -1528.4858    
     18100   441.40277      534.32967     -7749.6023      90.785909     -7658.8164     -7256.628     
     18200   490.90744      594.25637     -7744.9283      100.96783     -7643.9605     -15591.722    
     18300   520.58638      630.18351     -7739.67        107.07207     -7632.5979     -4534.8457    
     18400   452.50039      547.76363     -7728.31        93.068421     -7635.2416     -12097.185    
     18500   551.18156      667.21979     -7738.8347      113.36476     -7625.4699     -2284.162     
     18600   469.72201      568.61086     -7721.6097      96.610494     -7624.9992     -8914.4292    
     18700   522.03328      631.93502     -7743.4937      107.36966     -7636.124       3387.5224    
     18800   502.38264      608.14741     -7751.705       103.328       -7648.377      -3610.0828    
     18900   449.19573      543.76325     -7749.1812      92.388733     -7656.7925      2846.0616    
     19000   446.9887       541.09158     -7740.0799      91.9348       -7648.1451     -3289.0364    
     19100   500.46021      605.82026     -7727.7525      102.9326      -7624.8199     -12180.096    
     19200   609.98894      738.40767     -7749.3535      125.46002     -7623.8935     -7734.952     
     19300   496.14032      600.59091     -7746.7876      102.0441      -7644.7435     -8310.0724    
     19400   399.11203      483.13561     -7738.5973      82.087723     -7656.5096      1182.3913    
     19500   418.79929      506.96757     -7737.9534      86.136919     -7651.8165     -9320.9768    
     19600   506.00845      612.53654     -7748.1096      104.07374     -7644.0359     -17313.899    
     19700   513.6022       621.72898     -7746.7662      105.63559     -7641.1306     -8219.3755    
     19800   547.84477      663.18051     -7731.9101      112.67846     -7619.2317     -11168.504    
     19900   648.48647      785.00993     -7749.7551      133.37803     -7616.3771     -7934.8791    
     20000   508.28599      615.29356     -7756.4286      104.54217     -7651.8864     -8959.5518    
     20100   501.92979      607.59922     -7762.3016      103.23486     -7659.0667     -1518.2889    
     20200   489.31266      592.32585     -7766.2382      100.63982     -7665.5984      768.03978    
     20300   466.40519      564.59576     -7768.0179      95.928304     -7672.0896     -9246.1835    
     20400   472.60147      572.09652     -7767.2273      97.20273      -7670.0245     -2441.4983    
     20500   530.30947      641.95357     -7758.092       109.07187     -7649.0201     -1211.7191    
     20600   546.09718      661.06501     -7745.1197      112.31903     -7632.8006     -3856.3196    
     20700   528.96452      640.32547     -7746.163       108.79525     -7637.3677     -10314.832    
     20800   427.76541      517.82129     -7753.9161      87.981033     -7665.9351      927.83001    
     20900   429.83607      520.32787     -7757.8838      88.406918     -7669.4769     -2160.4077    
     21000   447.52807      541.74451     -7749.6609      92.045736     -7657.6152     -353.90654    
     21100   460.4959       557.44241     -7739.7066      94.712907     -7644.9937     -8379.02      
     21200   589.66656      713.80688     -7752.9661      121.2802      -7631.6859      2163.8111    
     21300   512.31527      620.17112     -7737.4571      105.3709      -7632.0862     -3616.5031    
     21400   428.78382      519.0541      -7723.7069      88.190496     -7635.5164     -12605.088    
     21500   465.66749      563.70275     -7729.3018      95.776578     -7633.5252     -13592.417    
     21600   603.94085      731.08629     -7750.7406      124.21607     -7626.5245     -5958.9402    
     21700   502.94824      608.83209     -7735.2601      103.44433     -7631.8158     -21260.776    
     21800   377.63072      457.13192     -7733.581       77.669535     -7655.9114     -7199.1199    
     21900   392.41053      475.02328     -7741.8983      80.709387     -7661.1889     -11099.399    
     22000   563.81919      682.51797     -7755.6596      115.96402     -7639.6955     -10557.312    
     22100   557.3848       674.72897     -7746.8761      114.64062     -7632.2355     -1275.5998    
     22200   549.35398      665.00745     -7751.046       112.98887     -7638.0571     -3119.4236    
     22300   496.25898      600.73455     -7757.8248      102.06851     -7655.7563     -3949.8243    
     22400   505.40257      611.80312     -7766.4614      103.94913     -7662.5123      1021.5629    
     22500   485.25917      587.41899     -7765.7303      99.806113     -7665.9241      6445.2044    
     22600   570.15662      690.18959     -7770.4811      117.26747     -7653.2136      4831.5878    
     22700   562.60982      681.05399     -7757.5534      115.71528     -7641.8381     -1526.4277    
     22800   434.63403      526.13593     -7743.8764      89.393742     -7654.4826      2380.5101    
     22900   477.0309       577.45846     -7770.4212      98.113757     -7672.3074     -4734.8756    
     23000   542.78081      657.05046     -7786.4346      111.63693     -7674.7976     -2760.124     
     23100   476.85898      577.25034     -7771.769       98.078397     -7673.6906      4281.0414    
     23200   454.1198       549.72397     -7749.1257      93.401496     -7655.7242     -11588.538    
     23300   588.82062      712.78285     -7760.0697      121.10621     -7638.9635     -5824.1242    
     23400   484.59365      586.61337     -7750.798       99.669232     -7651.1288     -4018.4422    
     23500   504.17222      610.31375     -7760.4463      103.69607     -7656.7502     -6636.0573    
     23600   514.07213      622.29784     -7764.4735      105.73224     -7658.7413     -10535.571    
     23700   471.03985      570.20614     -7761.1786      96.881543     -7664.2971     -3528.5065    
     23800   397.54641      481.2404      -7750.2078      81.765714     -7668.4421     -17520.196    
     23900   506.21596      612.78774     -7753.4352      104.11642     -7649.3187     -6055.2003    
     24000   533.9723       646.38752     -7740.6681      109.82523     -7630.8428     -9598.6543    
     24100   605.43583      732.89601     -7754.2449      124.52356     -7629.7214     -8909.069     
     24200   504.50639      610.71826     -7754.6502      103.7648      -7650.8854      2207.7822    
     24300   439.28821      531.76994     -7752.7566      90.350995     -7662.4056      2285.8143    
     24400   485.98645      588.29939     -7757.4628      99.955698     -7657.5071     -9114.7539    
     24500   573.99444      694.83537     -7768.7048      118.05682     -7650.648       5666.607     
     24600   458.11117      554.55563     -7743.1394      94.222424     -7648.9169      3450.205     
     24700   479.58792      580.5538      -7740.7909      98.639675     -7642.1512      3664.7278    
     24800   510.39303      617.8442      -7752.6802      104.97554     -7647.7046     -16190.359    
     24900   478.05586      578.6992      -7769.6877      98.324567     -7671.3631      1928.315     
     25000   418.90094      507.09061     -7759.0619      86.157825     -7672.9041     -3391.4802    
     25100   490.93244      594.28664     -7753.3531      100.97297     -7652.3801     -6261.8025    
     25200   489.44997      592.49206     -7750.9536      100.66806     -7650.2856     -3354.7875    
     25300   594.49153      719.64764     -7772.5553      122.27258     -7650.2827      592.29645    
     25400   429.82743      520.31741     -7751.0229      88.40514      -7662.6177      306.86166    
     25500   445.28234      539.02599     -7757.4301      91.583844     -7665.8462     -7855.4537    
     25600   497.55017      602.29758     -7754.5523      102.33408     -7652.2183     -7980.4138    
     25700   567.37633      686.82398     -7761.1069      116.69563     -7644.4113     -8037.1147    
     25800   530.48329      642.16398     -7773.6756      109.10762     -7664.568      -10083.041    
     25900   448.95154      543.46766     -7773.1229      92.33851      -7680.7844     -2391.3919    
     26000   433.55602      524.83097     -7762.6972      89.172021     -7673.5252     -5724.0968    
     26100   468.98895      567.72346     -7754.5731      96.459721     -7658.1134     -6884.2103    
     26200   490.69765      594.00242     -7756.8178      100.92468     -7655.8931      409.91643    
     26300   478.96258      579.79681     -7752.8218      98.511056     -7654.3108     -8383.9748    
     26400   564.23133      683.01687     -7753.8099      116.04878     -7637.7612     -6456.7324    
     26500   544.60302      659.25628     -7738.4084      112.01171     -7626.3967     -7496.9367    
     26600   430.30265      520.89268     -7747.7094      88.502882     -7659.2065     -5123.2404    
     26700   457.00242      553.21345     -7755.4788      93.994381     -7661.4844     -7694.7585    
     26800   534.42293      646.93302     -7764.4528      109.91791     -7654.5349      4161.9484    
     26900   467.11283      565.45237     -7747.6293      96.073848     -7651.5554     -4318.0973    
     27000   517.23414      626.12554     -7735.1796      106.38259     -7628.797       3292.2821    
     27100   583.08982      705.84558     -7732.2852      119.92752     -7612.3577     -4123.6285    
     27200   560.69859      678.7404      -7737.0775      115.32218     -7621.7553     -6223.9821    
     27300   467.1271       565.46965     -7734.5472      96.076785     -7638.4704     -5353.6259    
     27400   495.9109       600.31319     -7741.1188      101.99692     -7639.1219     -11497.23     
     27500   474.46109      574.34764     -7737.4588      97.585209     -7639.8736     -15714.417    
     27600   531.57133      643.48108     -7756.9042      109.33141     -7647.5728     -12935.24     
     27700   441.94873      534.99056     -7755.7727      90.898199     -7664.8745     -12102.602    
     27800   441.22595      534.11563     -7748.5836      90.749542     -7657.834      -9704.6759    
     27900   519.9186       629.37515     -7744.3107      106.93472     -7637.376      -14781.724    
     28000   528.09793      639.27644     -7747.5548      108.61701     -7638.9377     -7719.0422    
     28100   521.87226      631.74011     -7755.0825      107.33654     -7647.7459     -13873.299    
     28200   457.97904      554.39568     -7764.435       94.195249     -7670.2397     -10630.05     
     28300   418.04854      506.05876     -7760.1358      85.982507     -7674.1533     -9972.0755    
     28400   485.51828      587.73266     -7764.1442      99.859406     -7664.2848      1506.3338    
     28500   539.85957      653.51421     -7773.582       111.0361      -7662.5459     -752.57892    
     28600   502.35418      608.11295     -7774.8979      103.32214     -7671.5758      3007.3926    
     28700   472.06961      571.45268     -7771.9746      97.093338     -7674.8813      2460.0997    
     28800   530.18721      641.80557     -7754.7613      109.04673     -7645.7145      2426.0247    
     28900   555.06833      671.92482     -7755.9244      114.16417     -7641.7602     -756.94129    
     29000   457.92028      554.32455     -7754.8992      94.183163     -7660.716      -7579.5314    
     29100   473.32558      572.97307     -7762.8801      97.351661     -7665.5285     -8031.7081    
     29200   477.06505      577.4998      -7757.5909      98.120781     -7659.4701     -5994.0769    
     29300   611.11646      739.77255     -7757.7431      125.69192     -7632.0512     -9704.9823    
     29400   513.50159      621.60718     -7737.8605      105.6149      -7632.2456     -2110.5138    
     29500   457.56004      553.88847     -7750.0116      94.109071     -7655.9025     -9658.9262    
     29600   508.4917       615.54259     -7769.6578      104.58449     -7665.0733     -13957.048    
     29700   447.58144      541.80912     -7753.7952      92.056713     -7661.7385     -3603.294     
     29800   465.41566      563.3979      -7744.2664      95.724781     -7648.5416     -8146.5487    
     29900   383.43466      464.15775     -7716.8163      78.863267     -7637.953      -17415.18     
     30000   559.10606      676.81259     -7741.1122      114.99464     -7626.1175     -11008.429    
     30100   476.99055      577.40962     -7735.4246      98.105458     -7637.3192     -11086.808    
     30200   516.49499      625.23078     -7750.9677      106.23057     -7644.7371     -285.07554    
     30300   429.14794      519.49488     -7742.7864      88.265387     -7654.5211     -7582.1766    
     30400   428.54222      518.76163     -7742.5605      88.140804     -7654.4197     -3044.7451    
     30500   500.46917      605.8311      -7732.9988      102.93444     -7630.0644     -14950.322    
     30600   588.87106      712.84391     -7739.9498      121.11658     -7618.8333      1811.6594    
     30700   500.71666      606.13069     -7744.852       102.98535     -7641.8666     -14147.128    
     30800   428.61298      518.84729     -7745.6783      88.155357     -7657.5229     -9527.7631    
     30900   524.45369      634.86499     -7761.8238      107.86748     -7653.9563     -9940.982     
     31000   513.71251      621.86252     -7763.0385      105.65828     -7657.3803      1109.0512    
     31100   408.98071      495.08192     -7762.0314      84.117473     -7677.914      -3949.321     
     31200   433.45066      524.70344     -7771.74        89.150353     -7682.5896     -4360.0064    
     31300   584.00912      706.9584      -7778.4703      120.1166      -7658.3537      833.9788     
     31400   501.45272      607.02171     -7753.3208      103.13674     -7650.1841     -2620.8412    
     31500   558.99789      676.68166     -7771.1575      114.97239     -7656.1851     -514.77573    
     31600   503.08856      609.00194     -7763.6068      103.47319     -7660.1336     -11745.476    
     31700   466.87787      565.16795     -7763.0866      96.025523     -7667.0611     -6029.9337    
     31800   440.96993      533.8057      -7762.715       90.696884     -7672.0181      3871.8089    
     31900   527.91049      639.04954     -7758.983       108.57846     -7650.4046     -8043.7663    
     32000   610.70069      739.26926     -7757.5137      125.60641     -7631.9072     -8358.728     
     32100   548.79917      664.33583     -7758.0201      112.87476     -7645.1454     -9872.5354    
     32200   481.60384      582.99412     -7751.6944      99.0543       -7652.6401     -13130.98     
     32300   465.25273      563.20068     -7750.8567      95.691272     -7655.1654     -9171.5344    
     32400   487.96196      590.6908      -7760.2997      100.36201     -7659.9377     -24267.088    
     32500   449.70217      544.37631     -7759.3568      92.492896     -7666.8639     -13812.654    
     32600   454.11852      549.72242     -7750.0869      93.401233     -7656.6856     -8343.0722    
     32700   475.66568      575.80582     -7732.8719      97.832963     -7635.0389     -5131.8783    
     32800   525.62561      636.28364     -7731.4537      108.10852     -7623.3452     -13709.31     
     32900   578.097        699.80163     -7741.6192      118.90062     -7622.7186      2230.8874    
     33000   459.1222       555.7795      -7743.1297      94.430368     -7648.6993      2244.83      
     33100   475.95698      576.15844     -7754.2227      97.892876     -7656.3299     -981.16753    
     33200   458.6748       555.23792     -7750.1224      94.338349     -7655.7841     -7760.2415    
     33300   573.40864      694.12625     -7762.8189      117.93634     -7644.8826     -6835.5803    
     33400   511.66988      619.38986     -7720.9906      105.23816     -7615.7525     -8301.7987    
     33500   581.18906      703.54465     -7734.8331      119.53658     -7615.2965     -7116.3399    
     33600   428.17241      518.31397     -7723.165       88.064742     -7635.1003     -10438.963    
     33700   437.05244      529.06348     -7732.8795      89.891151     -7642.9884     -11996.558    
     33800   545.60807      660.47292     -7762.384       112.21843     -7650.1656     -8665.8193    
     33900   450.6472       545.52029     -7762.1225      92.687266     -7669.4353     -12435.718    
     34000   413.95158      501.09929     -7774.422       85.139862     -7689.2822     -21376.855    
     34100   386.97201      468.4398      -7779.0823      79.590814     -7699.4915     -14042.426    
     34200   423.08047      512.15005     -7766.5506      87.017454     -7679.5332     -13433.076    
     34300   530.97028      642.7535      -7764.6517      109.20779     -7655.4439     -5756.19      
     34400   529.69791      641.21326     -7761.715       108.94609     -7652.7689     -12625.438    
     34500   460.17575      557.05485     -7763.6163      94.647058     -7668.9693     -4506.8905    
     34600   424.11543      513.40288     -7767.6002      87.230319     -7680.3699     -6515.9506    
     34700   452.86267      548.20218     -7772.3849      93.142934     -7679.242      -6226.239     
     34800   538.09005      651.37217     -7757.777       110.67215     -7647.1049      1926.0479    
     34900   615.20255      744.71887     -7766.3699      126.53233     -7639.8375     -5098.6995    
     35000   508.61656      615.69373     -7763.3497      104.61017     -7658.7395      14733.456    
     35100   495.76469      600.1362      -7771.7449      101.96685     -7669.7781      6008.8305    
     35200   441.46983      534.41085     -7761.162       90.799702     -7670.3623     -4488.5205    
     35300   471.07734      570.25151     -7747.2725      96.889252     -7650.3833     -666.62282    
     35400   471.18392      570.38054     -7729.841       96.911174     -7632.9298     -8426.6359    
     35500   477.58092      578.12427     -7736.3774      98.226882     -7638.1505     -17137.67     
     35600   476.85287      577.24295     -7751.3667      98.077141     -7653.2896     -4479.7777    
     35700   425.38155      514.93556     -7742.9287      87.49073      -7655.4379     -8015.9897    
     35800   514.54347      622.86841     -7743.6142      105.82919     -7637.785      -11691.335    
     35900   582.56533      705.21066     -7737.4601      119.81964     -7617.6405     -6878.5463    
     36000   610.73894      739.31556     -7735.3041      125.61428     -7609.6898     -9738.882     
     36100   442.95957      536.21421     -7735.4393      91.106105     -7644.3332     -15967.286    
     36200   460.46059      557.39966     -7752.7743      94.705643     -7658.0686     -17821.272    
     36300   476.02511      576.24092     -7757.1285      97.90689      -7659.2216     -11577.091    
     36400   483.77091      585.61741     -7745.2653      99.500014     -7645.7653     -10574.182    
     36500   561.21721      679.3682      -7739.8126      115.42885     -7624.3837     -3895.6177    
     36600   519.45577      628.81488     -7736.6781      106.83953     -7629.8385     -160.74749    
     36700   577.08702      698.57902     -7761.4658      118.69289     -7642.7729     -5390.7465    
     36800   516.37781      625.08893     -7759.5385      106.20647     -7653.332       5233.0405    
     36900   461.54954      558.71787     -7762.4937      94.929615     -7667.5641      4245.7148    
     37000   411.61311      498.2685      -7759.767       84.658895     -7675.1081     -2420.2558    
     37100   573.34076      694.04408     -7778.0649      117.92237     -7660.1425      7001.4918    
     37200   532.57764      644.69924     -7746.3654      109.53838     -7636.827       8926.9076    
     37300   508.54941      615.61244     -7750.0352      104.59635     -7645.4388     -1999.4376    
     37400   473.533        573.22416     -7767.3836      97.394324     -7669.9893      5296.2661    
     37500   497.57916      602.33267     -7773.2468      102.34004     -7670.9068      4808.2442    
     37600   515.43224      623.94428     -7770.226       106.01199     -7664.214      -4796.6706    
     37700   490.08444      593.26012     -7758.5179      100.79856     -7657.7193     -6868.2426    
     37800   524.93643      635.44936     -7754.4262      107.96677     -7646.4594     -20258.716    
     37900   540.18974      653.91389     -7755.5863      111.10401     -7644.4823     -9345.6782    
     38000   476.4223       576.72173     -7754.3903      97.988583     -7656.4017     -3408.9395    
     38100   447.21069      541.36031     -7751.9148      91.980459     -7659.9344     -11155.028    
     38200   508.52758      615.58602     -7756.0145      104.59187     -7651.4226     -16696.069    
     38300   523.24877      633.4064      -7738.4244      107.61966     -7630.8047     -5198.3998    
     38400   588.21451      712.04914     -7742.8167      120.98154     -7621.8352     -6798.6873    
     38500   510.56262      618.04948     -7744.2879      105.01042     -7639.2775     -5125.0925    
     38600   509.46529      616.72114     -7750.6441      104.78473     -7645.8594      5210.2816    
     38700   477.50949      578.03781     -7739.4155      98.212191     -7641.2033     -4691.9509    
     38800   531.56293      643.47091     -7732.7437      109.32968     -7623.4141     -4129.2126    
     38900   520.52885      630.11387     -7711.9063      107.06024     -7604.8461     -11745.643    
     39000   572.15447      692.60804     -7743.1797      117.67838     -7625.5014     -5837.578     
     39100   548.21759      663.63182     -7750.7825      112.75514     -7638.0274     -380.52075    
     39200   471.60371      570.88871     -7741.814       96.997515     -7644.8165      1972.5163    
     39300   497.95568      602.78845     -7744.0111      102.41748     -7641.5937      428.64123    
     39400   546.30018      661.31074     -7741.6062      112.36078     -7629.2454     -5222.3533    
     39500   497.41831      602.13795     -7743.7865      102.30695     -7641.4795     -9433.4244    
     39600   472.87755      572.43072     -7760.9662      97.259514     -7663.7067     -3688.3882    
     39700   397.85855      481.61825     -7750.2287      81.829913     -7668.3988     -14090.33     
     39800   546.24311      661.24166     -7763.9745      112.34904     -7651.6255     -9442.5102    
     39900   500.6277       606.02301     -7747.1608      102.96705     -7644.1937     -12318.094    
     40000   587.93481      711.71056     -7752.6559      120.92402     -7631.7319     -12938.357    
Loop time of 347.061 on 1 procs for 40000 steps with 70 atoms

Performance: 2.489 ns/day, 9.641 hours/ns, 115.253 timesteps/s, 8.068 katom-step/s
99.1% CPU use with 1 MPI tasks x no OpenMP threads

MPI task timing breakdown:
Section |  min time  |  avg time  |  max time  |%varavg| %total
---------------------------------------------------------------
Pair    | 324.05     | 324.05     | 324.05     |   0.0 | 93.37
Neigh   | 0.74034    | 0.74034    | 0.74034    |   0.0 |  0.21
Comm    | 0.23379    | 0.23379    | 0.23379    |   0.0 |  0.07
Output  | 0.054062   | 0.054062   | 0.054062   |   0.0 |  0.02
Modify  | 21.916     | 21.916     | 21.916     |   0.0 |  6.31
Other   |            | 0.06796    |            |       |  0.02

Nlocal:             70 ave          70 max          70 min
Histogram: 1 0 0 0 0 0 0 0 0 0
Nghost:           1536 ave        1536 max        1536 min
Histogram: 1 0 0 0 0 0 0 0 0 0
Neighs:          22923 ave       22923 max       22923 min
Histogram: 1 0 0 0 0 0 0 0 0 0

Total # of neighbors = 22923
Ave neighs/atom = 327.47143
Neighbor list builds = 174
Dangerous builds = 0

write_data      structures/${MODEL}_ramp_${STAGE}_final.data nocoeff
write_data      structures/model_a_ramp_${STAGE}_final.data nocoeff
write_data      structures/model_a_ramp_600K_final.data nocoeff
System init for write_data ...
WARNING: Fix recenter should come after all other integration fixes (src/fix_recenter.cpp:130)
print "${MODEL} ramp stage ${STAGE} (T=${TSTAGE} K) done -> structures/${MODEL}_ramp_${STAGE}_final.data"
model_a ramp stage 600K (T=600 K) done -> structures/model_a_ramp_600K_final.data
Total wall time: 0:05:47
