thermo          25
thermo_style    custom step temp pe etotal press
dump            traj all atom 25 trajectories/model_b_minimize.lammpstrj

# Conjugate-gradient minimization (conservative tolerances / step caps).
min_style       cg
minimize        1.0e-4 1.0e-6 2000 20000

CITE-CITE-CITE-CITE-CITE-CITE-CITE-CITE-CITE-CITE-CITE-CITE-CITE

Your simulation uses code contributions which should be cited:

- pair reaxff command: doi:10.1016/j.parco.2011.08.005

@Article{Aktulga12,
 author = {H. M. Aktulga and J. C. Fogarty and S. A. Pandit and A. Y. Grama},
 title = {Parallel Reactive Molecular Dynamics: {N}umerical Methods and Algorithmic Techniques},
 journal = {Parallel Computing},
 year =    2012,
 volume =  38,
 number =  {4--5},
 pages =   {245--259}
}

- fix qeq/reaxff command: doi:10.1016/j.parco.2011.08.005

@Article{Aktulga12,
 author = {H. M. Aktulga and J. C. Fogarty and S. A. Pandit and A. Y. Grama},
 title = {Parallel Reactive Molecular Dynamics: {N}umerical Methods and Algorithmic Techniques},
 journal = {Parallel Computing},
 year =    2012,
 volume =  38,
 pages =   {245--259}
}

CITE-CITE-CITE-CITE-CITE-CITE-CITE-CITE-CITE-CITE-CITE-CITE-CITE

Neighbor list info ...
  update: every = 1 steps, delay = 0 steps, check = yes
  max neighbors/atom: 2000, page size: 100000
  master list distance cutoff = 12
  ghost atom cutoff = 12
  binsize = 6, bins = 2 2 7
  2 neighbor lists, perpetual/occasional/extra = 2 0 0
  (1) pair reaxff, perpetual
      attributes: half, newton off, ghost
      pair build: half/bin/ghost/newtoff
      stencil: full/ghost/bin/3d
      bin: standard
  (2) fix qeq/reaxff, perpetual, copy from (1)
      attributes: half, newton off
      pair build: copy
      stencil: none
      bin: none
Per MPI rank memory allocation (min/avg/max) = 136.6 | 136.6 | 136.6 Mbytes
   Step          Temp          PotEng         TotEng         Press     
         0   0             -7061.4805     -7061.4805      39706.184    
        12   0             -7183.8134     -7183.8134      67731.103    
Loop time of 0.312097 on 1 procs for 12 steps with 69 atoms

99.7% CPU use with 1 MPI tasks x no OpenMP threads

Minimization stats:
  Stopping criterion = energy tolerance
  Energy initial, next-to-last, final = 
     -7061.48053651205  -7183.65244222052  -7183.81343367651
  Force two-norm initial, final = 836.73199 202.17343
  Force max component initial, final = 326.60449 92.329595
  Final line search alpha, max atom move = 0.00071611658 0.066118754
  Iterations, force evaluations = 12 27

MPI task timing breakdown:
Section |  min time  |  avg time  |  max time  |%varavg| %total
---------------------------------------------------------------
Pair    | 0.28552    | 0.28552    | 0.28552    |   0.0 | 91.49
Neigh   | 0          | 0          | 0          |   0.0 |  0.00
Comm    | 0.00022095 | 0.00022095 | 0.00022095 |   0.0 |  0.07
Output  | 0          | 0          | 0          |   0.0 |  0.00
Modify  | 0.026141   | 0.026141   | 0.026141   |   0.0 |  8.38
Other   |            | 0.0002108  |            |       |  0.07

Nlocal:             69 ave          69 max          69 min
Histogram: 1 0 0 0 0 0 0 0 0 0
Nghost:           2246 ave        2246 max        2246 min
Histogram: 1 0 0 0 0 0 0 0 0 0
Neighs:          22833 ave       22833 max       22833 min
Histogram: 1 0 0 0 0 0 0 0 0 0

Total # of neighbors = 22833
Ave neighs/atom = 330.91304
Neighbor list builds = 0
Dangerous builds = 0

# Save the minimized structure for the equilibration step.
write_data      structures/model_b_sv_minimized.data nocoeff
System init for write_data ...

print "Model B minimization done -> structures/model_b_sv_minimized.data"
Model B minimization done -> structures/model_b_sv_minimized.data
Total wall time: 0:00:00
