thermo          100
thermo_style    custom step temp c_ctemp pe ke etotal press
dump            traj all custom ${DUMPEVERY} trajectories/${MODEL}_ramp_${STAGE}.lammpstrj id type xu yu zu
dump            traj all custom 100 trajectories/${MODEL}_ramp_${STAGE}.lammpstrj id type xu yu zu
dump            traj all custom 100 trajectories/model_b_ramp_${STAGE}.lammpstrj id type xu yu zu
dump            traj all custom 100 trajectories/model_b_ramp_1200K.lammpstrj id type xu yu zu
dump_modify     traj sort id

# CONTINUOUS HEAT-UP: NO velocity re-initialization. The carried-over state is
# brought to TSTAGE by the thermostat (the start structure is ~300 K from
# Phase 4/5 equilibration; each later stage continues from the previous final).
fix             nvt mobile nvt temp ${TSTAGE} ${TSTAGE} ${TDAMP}
fix             nvt mobile nvt temp 1200 ${TSTAGE} ${TDAMP}
fix             nvt mobile nvt temp 1200 1200 ${TDAMP}
fix             nvt mobile nvt temp 1200 1200 25
timestep        ${DT}
timestep        0.25
run             ${NSTEPS}
run             40000

CITE-CITE-CITE-CITE-CITE-CITE-CITE-CITE-CITE-CITE-CITE-CITE-CITE

Your simulation uses code contributions which should be cited:

- pair reaxff command: doi:10.1016/j.parco.2011.08.005

@Article{Aktulga12,
 author = {H. M. Aktulga and J. C. Fogarty and S. A. Pandit and A. Y. Grama},
 title = {Parallel Reactive Molecular Dynamics: {N}umerical Methods and Algorithmic Techniques},
 journal = {Parallel Computing},
 year =    2012,
 volume =  38,
 number =  {4--5},
 pages =   {245--259}
}

- fix qeq/reaxff command: doi:10.1016/j.parco.2011.08.005

@Article{Aktulga12,
 author = {H. M. Aktulga and J. C. Fogarty and S. A. Pandit and A. Y. Grama},
 title = {Parallel Reactive Molecular Dynamics: {N}umerical Methods and Algorithmic Techniques},
 journal = {Parallel Computing},
 year =    2012,
 volume =  38,
 pages =   {245--259}
}

CITE-CITE-CITE-CITE-CITE-CITE-CITE-CITE-CITE-CITE-CITE-CITE-CITE

WARNING: Fix recenter should come after all other integration fixes (src/fix_recenter.cpp:130)
Neighbor list info ...
  update: every = 1 steps, delay = 0 steps, check = yes
  max neighbors/atom: 2000, page size: 100000
  master list distance cutoff = 12
  ghost atom cutoff = 12
  binsize = 6, bins = 2 2 7
  2 neighbor lists, perpetual/occasional/extra = 2 0 0
  (1) pair reaxff, perpetual
      attributes: half, newton off, ghost
      pair build: half/bin/ghost/newtoff
      stencil: full/ghost/bin/3d
      bin: standard
  (2) fix qeq/reaxff, perpetual, copy from (1)
      attributes: half, newton off
      pair build: copy
      stencil: none
      bin: none
Per MPI rank memory allocation (min/avg/max) = 88.02 | 88.02 | 88.02 Mbytes
   Step          Temp         c_ctemp         PotEng         KinEng         TotEng         Press     
         0   568.7557       690.63192     -7474.2429      115.28398     -7358.9589      16085.479    
       100   825.80558      1002.7639     -7485.9011      167.38673     -7318.5143      7152.8728    
       200   851.04652      1033.4136     -7447.6131      172.50295     -7275.1101      7288.1227    
       300   787.0397       955.69106     -7383.7083      159.52908     -7224.1792      17950.79     
       400   1056.1363      1282.4513     -7395.9879      214.07364     -7181.9142      233.00338    
       500   1115.1406      1354.0993     -7421.4204      226.03352     -7195.3868      13950.172    
       600   980.03791      1190.046      -7426.7078      198.64887     -7228.0589      10235.783    
       700   901.93414      1095.2057     -7404.5231      182.81762     -7221.7055      5826.7451    
       800   907.77424      1102.2973     -7360.9747      184.00137     -7176.9734      12216.426    
       900   1151.7498      1398.5534     -7409.58        233.45403     -7176.126       16279.943    
      1000   1037.5073      1259.8303     -7423.7272      210.29763     -7213.4296      11569.975    
      1100   896.61411      1088.7457     -7407.9847      181.73927     -7226.2454      10426.47     
      1200   972.66021      1181.0874     -7404.4083      197.15344     -7207.2548      21883.804    
      1300   1091.3352      1325.1928     -7399.9593      221.20829     -7178.751       24872.718    
      1400   978.87037      1188.6283     -7384.759       198.41221     -7186.3468      29749.591    
      1500   945.97823      1148.6878     -7417.2565      191.74514     -7225.5113      10736.612    
      1600   807.74001      980.82715     -7392.7684      163.72493     -7229.0435      16418.309    
      1700   1035.8036      1257.7615     -7394.617       209.95229     -7184.6647      5595.348     
      1800   1065.3121      1293.5933     -7379.8317      215.93353     -7163.8982      16703.085    
      1900   956.13396      1161.0198     -7382.1399      193.80365     -7188.3362      16537.737    
      2000   913.39461      1109.122      -7387.1534      185.1406      -7202.0128     -12908.332    
      2100   1074.1559      1304.3322     -7420.8829      217.72612     -7203.1568      7367.9738    
      2200   930.35918      1129.7219     -7412.9069      188.57923     -7224.3277      10658.671    
      2300   903.54636      1097.1634     -7399.6214      183.14441     -7216.477       22180.502    
      2400   1224.9695      1487.4629     -7437.2273      248.29529     -7188.932       16851.054    
      2500   759.46483      922.20729     -7387.7885      153.93979     -7233.8487      36599.838    
      2600   698.63243      848.33938     -7400.1016      141.60936     -7258.4923      17695.338    
      2700   1063.9671      1291.96       -7450.154       215.66089     -7234.4931      18072.226    
      2800   932.24306      1132.0094     -7415.6351      188.96109     -7226.674       15460.417    
      2900   875.62806      1063.2626     -7369.5335      177.4855      -7192.048       19617.914    
      3000   1149.6747      1396.0335     -7397.3958      233.0334      -7164.3624      7677.8488    
      3100   995.97829      1209.4022     -7388.455       201.8799      -7186.5751      7152.7527    
      3200   942.02826      1143.8915     -7410.0739      190.9445      -7219.1294      10525.98     
      3300   841.15007      1021.3965     -7394.9046      170.49698     -7224.4076      5357.8729    
      3400   1134.7368      1377.8947     -7406.7582      230.00557     -7176.7526      42471.832    
      3500   1095.8008      1330.6153     -7383.9255      222.11344     -7161.812       5660.051     
      3600   943.75772      1145.9915     -7377.849       191.29505     -7186.554       3560.6146    
      3700   1037.388       1259.6855     -7419.3183      210.27345     -7209.0449      31202.58     
      3800   1032.5035      1253.7543     -7434.0116      209.28339     -7224.7282      20054.957    
      3900   873.69403      1060.9142     -7420.5497      177.09349     -7243.4563      15636.262    
      4000   968.33286      1175.8328     -7441.724       196.27631     -7245.4477      24729.348    
      4100   1005.3573      1220.791      -7413.2059      203.78098     -7209.4249      10057.118    
      4200   984.17985      1195.0755     -7378.078       199.48842     -7178.5896      15311.564    
      4300   1164.0859      1413.5329     -7409.122       235.95449     -7173.1675     -9678.2072    
      4400   894.20183      1085.8165     -7406.335       181.25031     -7225.0847      19144.341    
      4500   928.13761      1127.0242     -7430.9871      188.12893     -7242.8582      8696.5092    
      4600   1077.007       1307.7942     -7441.9651      218.30402     -7223.661       10838.378    
      4700   756.75958      918.92235     -7363.919       153.39145     -7210.5275      13418.193    
      4800   960.19709      1165.9536     -7364.9804      194.62723     -7170.3532      15152.217    
      4900   1048.4034      1273.0613     -7367.9377      212.50621     -7155.4315      6644.4942    
      5000   1176.5741      1428.6971     -7411.0871      238.48578     -7172.6013      11356.912    
      5100   860.78713      1045.2415     -7391.4061      174.47732     -7216.9288      16515.489    
      5200   965.02875      1171.8206     -7403.4732      195.60658     -7207.8666      9982.2297    
      5300   1015.9118      1233.6072     -7398.5568      205.92033     -7192.6365      17747.357    
      5400   889.71565      1080.369      -7375.3654      180.34099     -7195.0244      24143.496    
      5500   981.12833      1191.3701     -7389.2027      198.86989     -7190.3328      6003.8246    
      5600   1163.1906      1412.4458     -7418.9752      235.77302     -7183.2022      7411.9973    
      5700   903.88985      1097.5805     -7408.4133      183.21403     -7225.1993      15417.678    
      5800   887.9564       1078.2328     -7412.0128      179.9844      -7232.0284      6595.9731    
      5900   999.45354      1213.6222     -7403.4877      202.58432     -7200.9034     -9694.8216    
      6000   1081.3178      1313.0287     -7388.3282      219.17779     -7169.1504      7593.2628    
      6100   1045.8201      1269.9244     -7363.2265      211.98258     -7151.2439      7628.8918    
      6200   1258.594       1528.2927     -7357.1134      255.11081     -7102.0026      391.34559    
      6300   982.25001      1192.7322     -7345.4854      199.09725     -7146.3881      11289.499    
      6400   1150.511       1397.0491     -7409.6531      233.20293     -7176.4501      14041.128    
      6500   902.12029      1095.4318     -7394.8962      182.85535     -7212.0408      7889.0541    
      6600   999.1805       1213.2906     -7417.118       202.52897     -7214.589       8493.1704    
      6700   1038.068       1260.5112     -7426.4312      210.41128     -7216.0199     -3202.2161    
      6800   762.58305      925.9937      -7397.423       154.57183     -7242.8512      9906.9386    
      6900   957.62028      1162.8246     -7431.2361      194.10492     -7237.1312      8273.3025    
      7000   910.67754      1105.8227     -7382.0941      184.58986     -7197.5042      11869.233    
      7100   1224.359       1486.7217     -7416.724       248.17155     -7168.5524      9592.7539    
      7200   1106.2222      1343.2698     -7400.1444      224.2258      -7175.9186      22780.839    
      7300   775.581        941.77693     -7384.331       157.20646     -7227.1245      19441.026    
      7400   931.08266      1130.6004     -7437.7692      188.72588     -7249.0433      659.51286    
      7500   1008.3417      1224.415      -7437.3421      204.38591     -7232.9562      10276.803    
      7600   944.63399      1147.0556     -7400.5212      191.47266     -7209.0485      16012.862    
      7700   994.71877      1207.8728     -7396.8201      201.6246      -7195.1954     -924.43305    
      7800   1014.1117      1231.4213     -7402.5917      205.55545     -7197.0363      18607.213    
      7900   1022.77        1241.935      -7414.107       207.31045     -7206.7965      17162.884    
      8000   886.7397       1076.7553     -7412.313       179.73778     -7232.5752      25063.132    
      8100   889.08039      1079.5976     -7431.385       180.21222     -7251.1728      11202.706    
      8200   985.8012       1197.0443     -7418.1861      199.81706     -7218.3691      8133.2544    
      8300   1127.6899      1369.3378     -7404.672       228.5772      -7176.0948      12638.823    
      8400   1043.8717      1267.5585     -7383.6422      211.58766     -7172.0546      25825.975    
      8500   1063.9196      1291.9024     -7407.1858      215.65127     -7191.5346      19125.87     
      8600   1021.9862      1240.9832     -7419.2995      207.15158     -7212.148       19986.561    
      8700   1019.8354      1238.3716     -7409.0849      206.71562     -7202.3693      22417.127    
      8800   1054.9408      1280.9996     -7399.9226      213.83132     -7186.0912      2382.4618    
      8900   1121.3941      1361.6929     -7420.3964      227.30107     -7193.0953      9943.1907    
      9000   957.84528      1163.0978     -7433.2975      194.15053     -7239.1469      3631.8161    
      9100   769.79901      934.75594     -7425.5439      156.03447     -7269.5095      9317.6421    
      9200   931.23984      1130.7912     -7433.4095      188.75774     -7244.6518      11161.067    
      9300   1052.2437      1277.7245     -7426.5598      213.28463     -7213.2752      9050.1682    
      9400   959.59775      1165.2258     -7400.7492      194.50575     -7206.2434      7215.4899    
      9500   879.89266      1068.4411     -7379.8214      178.34992     -7201.4715      10909.046    
      9600   877.46138      1065.4888     -7357.1641      177.85711     -7179.3069      9433.2382    
      9700   1304.2552      1583.7384     -7401.2364      264.36611     -7136.8703      25451.172    
      9800   945.28758      1147.8492     -7356.9871      191.60515     -7165.382       9671.5477    
      9900   721.81371      876.48808     -7341.2723      146.30809     -7194.9642      11012.894    
     10000   1073.4461      1303.4703     -7414.3691      217.58225     -7196.7868      3529.964     
     10100   1052.3071      1277.8015     -7426.6465      213.29748     -7213.349       10983.441    
     10200   858.03175      1041.8957     -7407.8401      173.91882     -7233.9213      8919.1689    
     10300   899.07578      1091.7349     -7408.9058      182.23824     -7226.6675      18427.615    
     10400   1195.7895      1452.0301     -7402.8137      242.38066     -7160.4331      9644.8405    
     10500   1024.2926      1243.7838     -7362.362       207.61907     -7154.7429      16287.9      
     10600   976.61919      1185.8947     -7369.6326      197.95591     -7171.6767      15961.866    
     10700   895.8689       1087.8408     -7408.3045      181.58822     -7226.7162      22874.231    
     10800   1013.7185      1230.9439     -7441.0849      205.47576     -7235.6092      4809.5274    
     10900   825.91497      1002.8967     -7403.2295      167.4089      -7235.8206      24153.463    
     11000   859.76023      1043.9946     -7368.8872      174.26917     -7194.6181      9032.2738    
     11100   1071.4445      1301.0397     -7391.3516      217.17653     -7174.1751      35967.804    
     11200   1118.4888      1358.165      -7417.4501      226.71219     -7190.7379      15483.264    
     11300   916.70302      1113.1394     -7406.7787      185.81119     -7220.9675      28563.772    
     11400   865.36629      1050.8019     -7402.7791      175.40549     -7227.3736      12591.432    
     11500   1088.1589      1321.3358     -7391.9091      220.56446     -7171.3447      6192.0508    
     11600   1140.7319      1385.1745     -7378.5277      231.22075     -7147.307       16450.623    
     11700   1035.8287      1257.792      -7376.0936      209.95739     -7166.1362      14749.848    
     11800   932.86381      1132.7632     -7391.8014      189.08691     -7202.7145      31331.794    
     11900   967.14339      1174.3884     -7417.7887      196.03521     -7221.7535      4587.9623    
     12000   1079.5263      1310.8533     -7427.2064      218.81466     -7208.3918      8396.3532    
     12100   790.65383      960.07965     -7370.4211      160.26164     -7210.1595      29753.25     
     12200   1055.0788      1281.1672     -7415.7317      213.85929     -7201.8724      6921.6239    
     12300   1070.6672      1300.0959     -7424.0432      217.01899     -7207.0242      11538.487    
     12400   942.57016      1144.5495     -7405.3238      191.05434     -7214.2695      13713.174    
     12500   955.75029      1160.5539     -7396.4258      193.72588     -7202.6999      23911.476    
     12600   918.30021      1115.0788     -7369.7628      186.13494     -7183.6278      28296.853    
     12700   1160.2502      1408.8753     -7403.9137      235.17702     -7168.7366      7767.0729    
     12800   930.34487      1129.7045     -7395.3746      188.57633     -7206.7983      38478.348    
     12900   903.90319      1097.5967     -7407.6197      183.21673     -7224.403       30212.827    
     13000   818.57105      993.97913     -7395.7408      165.92033     -7229.8205      21217.371    
     13100   995.96763      1209.3893     -7410.4264      201.87774     -7208.5487      14899.74     
     13200   968.45878      1175.9857     -7353.2892      196.30183     -7156.9874      14811.77     
     13300   1023.6231      1242.9709     -7351.5054      207.48337     -7144.022       16793.37     
     13400   1144.6428      1389.9234     -7391.3243      232.01347     -7159.3109      2299.6135    
     13500   920.77364      1118.0823     -7396.5694      186.63629     -7209.9331      23485.789    
     13600   923.82775      1121.7908     -7409.8544      187.25534     -7222.599       17978.378    
     13700   947.05275      1149.9926     -7399.7521      191.96294     -7207.7892      10660.788    
     13800   1029.7519      1250.413      -7387.8282      208.72565     -7179.1026      26588.221    
     13900   976.72751      1186.0263     -7376.5473      197.97786     -7178.5694      4357.432     
     14000   826.06007      1003.0729     -7396.8476      167.43831     -7229.4093      7044.2376    
     14100   946.0147       1148.7321     -7442.1619      191.75253     -7250.4094      33368.178    
     14200   1028.39        1248.7592     -7449.7322      208.44959     -7241.2826      19078.47     
     14300   981.04127      1191.2644     -7386.2959      198.85224     -7187.4437      24806.153    
     14400   987.11172      1198.6357     -7363.3046      200.08269     -7163.2219      8124.8448    
     14500   1033.0278      1254.3909     -7388.1845      209.38965     -7178.7948      17597.217    
     14600   985.18782      1196.2995     -7410.1037      199.69273     -7210.411       14216.791    
     14700   1095.0912      1329.7535     -7447.6835      221.96959     -7225.7139      25278.463    
     14800   918.74139      1115.6145     -7430.0421      186.22436     -7243.8177      18383.314    
     14900   826.65648      1003.7972     -7417.0078      167.5592      -7249.4486      11079.34     
     15000   973.61676      1182.2489     -7408.797       197.34733     -7211.4497      17546.257    
     15100   1116.4975      1355.747      -7411.0875      226.30856     -7184.779       17325.423    
     15200   1128.8202      1370.7103     -7415.6203      228.80631     -7186.814       11207.865    
     15300   822.62186      998.89797     -7383.9223      166.74141     -7217.1809      29596.863    
     15400   970.99397      1179.0641     -7430.6353      196.8157      -7233.8196      2143.436     
     15500   807.91227      981.03632     -7400.5518      163.75984     -7236.792       17517.418    
     15600   1232.8795      1497.068      -7444.1612      249.89862     -7194.2626      6524.8673    
     15700   1042.9336      1266.4194     -7403.9558      211.39752     -7192.5583      14524.283    
     15800   1052.3527      1277.8568     -7425.2083      213.30671     -7211.9016      3866.4307    
     15900   815.34442      990.06108     -7421.9382      165.2663      -7256.6719      5419.6534    
     16000   852.01944      1034.595      -7418.6068      172.70015     -7245.9066      23998.47     
     16100   1065.7291      1294.0996     -7427.7422      216.01805     -7211.7242     -1977.7038    
     16200   980.03896      1190.0473     -7410.8759      198.64908     -7212.2268      35846.825    
     16300   1091.5848      1325.4958     -7424.839       221.25886     -7203.5801      9064.6242    
     16400   1032.3758      1253.5992     -7413.5921      209.25751     -7204.3346      28860.82     
     16500   729.63497      885.98533     -7389.2124      147.89342     -7241.319       5369.5715    
     16600   863.819        1048.9231     -7413.7525      175.09187     -7238.6606      14619.485    
     16700   1160.0829      1408.6721     -7432.0214      235.14311     -7196.8783      18565.787    
     16800   922.23158      1119.8526     -7381.5004      186.93181     -7194.5686      8721.7838    
     16900   1076.7696      1307.5059     -7386.2882      218.2559      -7168.0323      20118.243    
     17000   1304.6969      1584.2748     -7386.1471      264.45565     -7121.6914      16968.133    
     17100   985.71589      1196.9407     -7367.4375      199.79976     -7167.6377      173.06418    
     17200   940.09548      1141.5445     -7396.0726      190.55273     -7205.5199      24777.879    
     17300   1013.904       1231.1692     -7414.9627      205.51336     -7209.4493      17584.242    
     17400   951.58332      1155.494      -7398.8739      192.88126     -7205.9927      35365.564    
     17500   1101.1883      1337.1572     -7371.2973      223.20545     -7148.0918      15279.415    
     17600   1113.1476      1351.6793     -7359.5492      225.62955     -7133.9197      49392.967    
     17700   1144.9532      1390.3003     -7395.2654      232.07638     -7163.189       40966.468    
     17800   873.89659      1061.1601     -7364.7035      177.13454     -7187.569       24121.175    
     17900   1018.8906      1237.2243     -7398.115       206.52412     -7191.5909      30388.466    
     18000   939.7983       1141.1836     -7379.9095      190.49249     -7189.417       17592.729    
     18100   1057.6419      1284.2794     -7368.9634      214.37881     -7154.5845      28539.056    
     18200   1246.9343      1514.1345     -7361.0796      252.74745     -7108.3322      14754.004    
     18300   1319.8968      1602.7319     -7363.5093      267.5366      -7095.9727      12098.647    
     18400   1175.0768      1426.879      -7410.387       238.18229     -7172.2047      16697.56     
     18500   1000.8178      1215.2787     -7408.2028      202.86084     -7205.3419      2211.4943    
     18600   869.1933       1055.449      -7389.7651      176.18121     -7213.5839      11270.746    
     18700   958.18561      1163.5111     -7389.2941      194.21951     -7195.0746      7409.2303    
     18800   1092.291       1326.3533     -7371.8436      221.40201     -7150.4416      12396.626    
     18900   1129.2113      1371.1852     -7371.8933      228.88559     -7143.0077      26548.113    
     19000   1062.0692      1289.6555     -7395.1028      215.2762      -7179.8266      20643.734    
     19100   1027.0332      1247.1118     -7408.1892      208.17459     -7200.0146      34757.039    
     19200   938.82597      1140.003      -7404.9832      190.29541     -7214.6878      15412.921    
     19300   850.88288      1033.2149     -7372.1774      172.46978     -7199.7077      15997.635    
     19400   1244.157       1510.7621     -7403.0719      252.18452     -7150.8874      7554.9671    
     19500   1088.3569      1321.5763     -7390.766       220.6046      -7170.1614      31314.803    
     19600   838.24712      1017.8715     -7356.8331      169.90857     -7186.9245      16175.622    
     19700   1105.0665      1341.8665     -7406.1866      223.99155     -7182.195       16863.202    
     19800   1158.3631      1406.5837     -7411.5739      234.7945      -7176.7794      11423.17     
     19900   949.29505      1152.7154     -7395.3124      192.41744     -7202.895       23196.3      
     20000   877.14222      1065.1013     -7421.0953      177.79241     -7243.3029      7577.7681    
     20100   876.17167      1063.9227     -7424.3411      177.59569     -7246.7454      16480.287    
     20200   944.69828      1147.1336     -7394.481       191.4857      -7202.9953      17036.94     
     20300   1067.8709      1296.7004     -7372.3991      216.45218     -7155.947       25446.874    
     20400   932.95309      1132.8716     -7360.6945      189.105       -7171.5895      18218.715    
     20500   978.40357      1188.0615     -7405.6611      198.31759     -7207.3436      32362.128    
     20600   947.98728      1151.1274     -7420.3852      192.15236     -7228.2328      24781.319    
     20700   1130.4986      1372.7483     -7447.1071      229.14651     -7217.9606      13989.955    
     20800   946.20901      1148.9681     -7372.7722      191.79191     -7180.9802      12443.45     
     20900   1137.7335      1381.5336     -7362.183       230.61299     -7131.57        2899.4113    
     21000   1028.9038      1249.3832     -7358.7108      208.55374     -7150.1571      16310.772    
     21100   893.51904      1084.9874     -7380.1596      181.11192     -7199.0477      8053.5       
     21200   1032.0114      1253.1567     -7416.615       209.18363     -7207.4314      16434.787    
     21300   1050.4413      1275.5359     -7421.6814      212.91929     -7208.7621      2790.7384    
     21400   902.68405      1096.1164     -7408.1744      182.96962     -7225.2048      13541.201    
     21500   850.4097       1032.6403     -7443.1156      172.37386     -7270.7417     -3371.0093    
     21600   816.29144      991.21104     -7447.1199      165.45826     -7281.6617      10809.633    
     21700   897.65975      1090.0154     -7429.7211      181.95122     -7247.7699      17359.887    
     21800   1043.5669      1267.1884     -7432.0525      211.52589     -7220.5266      35917.534    
     21900   901.08532      1094.175      -7384.5663      182.64556     -7201.9208      16046.996    
     22000   1031.2519      1252.2344     -7395.8017      209.02968     -7186.772       33449.997    
     22100   1077.5268      1308.4254     -7405.2453      218.40939     -7186.8359      20309.233    
     22200   942.44184      1144.3937     -7424.2909      191.02833     -7233.2625      28836.405    
     22300   849.56047      1031.6091     -7426.7148      172.20173     -7254.5131      1701.1285    
     22400   977.83761      1187.3742     -7417.6463      198.20288     -7219.4434      3096.6274    
     22500   1016.3167      1234.0989     -7398.1818      206.00241     -7192.1794      20715.236    
     22600   1016.5453      1234.3764     -7395.5002      206.04873     -7189.4514      9569.9239    
     22700   1007.6744      1223.6046     -7390.8829      204.25064     -7186.6322      8327.725     
     22800   1054.0613      1279.9316     -7411.9616      213.65305     -7198.3086      13080.83     
     22900   841.74288      1022.1164     -7405.8307      170.61714     -7235.2136      6313.5822    
     23000   911.54628      1106.8776     -7421.904       184.76595     -7237.138       17312.354    
     23100   1018.6394      1236.9192     -7407.2143      206.47319     -7200.7411      20102.344    
     23200   1200.9907      1458.3458     -7402.6237      243.4349      -7159.1888      37343.917    
     23300   1011.9951      1228.8511     -7379.4186      205.12642     -7174.2922      17034.621    
     23400   1013.9712      1231.2507     -7395.0407      205.52697     -7189.5138      17208.375    
     23500   1007.3432      1223.2025     -7403.5954      204.18351     -7199.4119      594.07975    
     23600   956.83891      1161.8758     -7399.2806      193.94654     -7205.3341      14951.123    
     23700   1067.5001      1296.2501     -7398.4788      216.37701     -7182.1018      16142.088    
     23800   1028.8377      1249.3029     -7340.463       208.54034     -7131.9226      10776.442    
     23900   1063.2399      1291.077      -7370.5157      215.5135      -7155.0022      5829.9887    
     24000   1003.082       1218.0281     -7394.9834      203.31978     -7191.6636      5282.6441    
     24100   1028.1666      1248.488      -7409.091       208.40431     -7200.6867      16916.423    
     24200   894.05259      1085.6353     -7404.5959      181.22006     -7223.3758      16026.342    
     24300   858.95325      1043.0147     -7416.9531      174.1056      -7242.8475      19914.396    
     24400   907.24752      1101.6577     -7422.5286      183.89461     -7238.634       4384.7858    
     24500   1086.6474      1319.5005     -7422.211       220.25809     -7201.9529      19012.351    
     24600   1051.0343      1276.256      -7389.3247      213.03949     -7176.2852      20940.041    
     24700   1144.4624      1389.7044     -7398.2251      231.9769      -7166.2482      7879.6184    
     24800   955.27714      1159.9794     -7407.8161      193.62998     -7214.1861      20814.538    
     24900   942.75638      1144.7756     -7430.8243      191.09208     -7239.7322      17991.54     
     25000   931.86605      1131.5516     -7419.8182      188.88467     -7230.9335      21653.797    
     25100   955.14755      1159.822      -7403.1379      193.60371     -7209.5342      10040.062    
     25200   956.43113      1161.3807     -7397.3263      193.86389     -7203.4624      11680.968    
     25300   987.70492      1199.356      -7403.2931      200.20293     -7203.0902      18266.238    
     25400   1132.9979      1375.7832     -7442.7932      229.65311     -7213.1401      5513.3695    
     25500   942.11464      1143.9963     -7419.3467      190.96201     -7228.3846      26284.886    
     25600   1066.7256      1295.3096     -7409.5031      216.22003     -7193.2831      17413.876    
     25700   1006.0904      1221.6812     -7355.015       203.92957     -7151.0854      29231.845    
     25800   1287.2828      1563.1292     -7412.7978      260.9259      -7151.8719      16706.503    
     25900   986.29169      1197.6399     -7407.981       199.91648     -7208.0645      20884.027    
     26000   901.02015      1094.0959     -7409.839       182.63235     -7227.2066      16799.479    
     26100   1093.6382      1327.9893     -7448.3818      221.67509     -7226.7068      13043.383    
     26200   1018.4515      1236.6911     -7444.1299      206.43511     -7237.6948      19603.413    
     26300   872.5048       1059.4701     -7433.7666      176.85243     -7256.9141      20598.332    
     26400   902.84577      1096.3127     -7416.7103      183.0024      -7233.7079      13811.766    
     26500   1031.7241      1252.8078     -7399.9596      209.1254      -7190.8342      16402.21     
     26600   1105.8613      1342.8316     -7402.5622      224.15265     -7178.4096      5000.2719    
     26700   987.08837      1198.6073     -7393.6687      200.07796     -7193.5907      3879.4536    
     26800   783.25793      951.09891     -7408.9444      158.76253     -7250.1819      20640.787    
     26900   1068.085       1296.9604     -7464.6965      216.49559     -7248.201       5721.7007    
     27000   902.16573      1095.487      -7423.4819      182.86456     -7240.6173      20565.065    
     27100   995.39521      1208.6942     -7402.3091      201.76171     -7200.5474      5355.8045    
     27200   1081.3802      1313.1046     -7405.5633      219.19045     -7186.3728      28167.177    
     27300   1092.2204      1326.2676     -7423.0875      221.3877      -7201.6998      1716.4558    
     27400   934.23611      1134.4296     -7429.7681      189.36507     -7240.4031      30609.118    
     27500   901.04289      1094.1235     -7428.1142      182.63696     -7245.4772      26840.577    
     27600   941.92254      1143.7631     -7395.306       190.92307     -7204.383       3872.4875    
     27700   1150.7855      1397.3824     -7419.5164      233.25857     -7186.2579      27368.803    
     27800   920.86162      1118.1891     -7382.266       186.65412     -7195.6119      11786.93     
     27900   913.00505      1108.649      -7385.3765      185.06163     -7200.3148      4248.9983    
     28000   919.46084      1116.4882     -7416.8978      186.37019     -7230.5276      37650.72     
     28100   950.62466      1154.3299     -7442.4216      192.68694     -7249.7346      8455.1243    
     28200   1005.689       1221.1938     -7442.4428      203.84821     -7238.5946      14615.964    
     28300   872.59529      1059.58       -7361.5019      176.87078     -7184.6312      23946.118    
     28400   1241.6557      1507.7248     -7403.4089      251.6775      -7151.7314      3816.8953    
     28500   925.15096      1123.3976     -7370.9827      187.52355     -7183.4592      28302.734    
     28600   953.47767      1157.7943     -7395.6014      193.26524     -7202.3362      6058.5552    
     28700   1010.8841      1227.5022     -7414.4957      204.90125     -7209.5945     -4456.6993    
     28800   919.93301      1117.0615     -7427.5451      186.4659      -7241.0792      19815.402    
     28900   849.57112      1031.6221     -7427.8015      172.20389     -7255.5976      7835.7109    
     29000   874.24132      1061.5787     -7395.4506      177.20442     -7218.2461      14818.577    
     29100   893.27561      1084.6918     -7370.1852      181.06258     -7189.1227      9127.4302    
     29200   1078.4783      1309.5807     -7399.7559      218.60224     -7181.1537      22273.275    
     29300   863.73196      1048.8174     -7377.6911      175.07422     -7202.6169      10579.849    
     29400   929.68797      1128.9068     -7419.9071      188.44318     -7231.4639      10460.595    
     29500   780.08787      947.24955     -7428.6677      158.11998     -7270.5477      13478.593    
     29600   873.7795       1061.018      -7432.0468      177.11081     -7254.936       11165.78     
     29700   1054.0688      1279.9407     -7422.0456      213.65456     -7208.391       14115.107    
     29800   1051.3882      1276.6857     -7408.4542      213.11123     -7195.3429      19504.832    
     29900   879.38083      1067.8196     -7382.8568      178.24617     -7204.6106      12963.798    
     30000   1058.4333      1285.2405     -7425.1847      214.53924     -7210.6455      20132.054    
     30100   896.41277      1088.5012     -7423.0955      181.69846     -7241.3971      11216.713    
     30200   980.71997      1190.8742     -7444.0003      198.78712     -7245.2132      14855.328    
     30300   884.49669      1074.0317     -7411.9615      179.28313     -7232.6783      11900.297    
     30400   1071.9123      1301.6078     -7420.0834      217.27135     -7202.8121      13690.048    
     30500   1145.8215      1391.3546     -7406.9449      232.25237     -7174.6925      14778.36     
     30600   882.44676      1071.5425     -7366.8017      178.86762     -7187.9341      3998.3901    
     30700   1097.4427      1332.609      -7402.0789      222.44624     -7179.6327     -1759.4926    
     30800   1027.0698      1247.1562     -7376.5687      208.182       -7168.3867      18165.543    
     30900   978.66098      1188.374      -7375.4191      198.36977     -7177.0493      6499.6928    
     31000   925.60384      1123.9475     -7384.2426      187.61535     -7196.6273      11086.849    
     31100   949.41453      1152.8605     -7415.6534      192.44166     -7223.2117      5512.5684    
     31200   954.39355      1158.9065     -7442.2519      193.45088     -7248.801       16237.41     
     31300   872.01485      1058.8752     -7428.8731      176.75312     -7252.12        25475.019    
     31400   1213.1232      1473.0781     -7440.7504      245.8941      -7194.8563      16038.314    
     31500   1026.8415      1246.879      -7407.4972      208.13573     -7199.3615      15776.041    
     31600   969.24993      1176.9463     -7427.5799      196.46219     -7231.1177      11822.667    
     31700   961.76425      1167.8566     -7422.7514      194.94488     -7227.8065      28103.101    
     31800   1060.5214      1287.776      -7413.37        214.96248     -7198.4075      18364.582    
     31900   909.22773      1104.0622     -7361.4225      184.29599     -7177.1265      13901.833    
     32000   1155.8639      1403.5491     -7376.1537      234.28794     -7141.8657      21497.494    
     32100   1052.941       1278.5712     -7382.7751      213.42596     -7169.3492      13404.234    
     32200   822.39424      998.62158     -7380.9398      166.69527     -7214.2445      14750.699    
     32300   865.13231      1050.5178     -7385.6003      175.35807     -7210.2422      8901.1943    
     32400   1121.6163      1361.9627     -7402.4855      227.34612     -7175.1394     -5939.8433    
     32500   931.37743      1130.9583     -7349.4357      188.78563     -7160.65        17153.866    
     32600   962.80477      1169.1201     -7362.5524      195.15579     -7167.3966     -1426.2571    
     32700   1039.4651      1262.2076     -7386.0222      210.69446     -7175.3277      23799.796    
     32800   1089.2849      1322.7031     -7410.1106      220.7927      -7189.3179      8663.7072    
     32900   803.41852      975.57963     -7396.2341      162.84898     -7233.3851      7603.8293    
     33000   847.65193      1029.2916     -7416.6209      171.81488     -7244.8061      6327.8315    
     33100   1154.2941      1401.6428     -7413.4567      233.96973     -7179.4869      1905.0329    
     33200   1066.3288      1294.8278     -7381.3955      216.1396      -7165.2559      23647.151    
     33300   925.82447      1124.2154     -7372.7452      187.66007     -7185.0851      5115.9151    
     33400   905.43468      1099.4564     -7398.9816      183.52716     -7215.4544     -2831.561     
     33500   959.34216      1164.9155     -7405.5303      194.45394     -7211.0763      2521.0309    
     33600   1215.2207      1475.6251     -7402.8227      246.31926     -7156.5035      22430.855    
     33700   941.44513      1143.1834     -7364.5464      190.8263      -7173.7201      2330.8699    
     33800   826.32665      1003.3966     -7384.6729      167.49235     -7217.1805     -1524.9146    
     33900   1164.8827      1414.5004     -7446.7925      236.11599     -7210.6765      16042.216    
     34000   829.63252      1007.4109     -7410.611       168.16243     -7242.4486      18641.458    
     34100   833.84783      1012.5295     -7403.684       169.01685     -7234.6672      5968.6186    
     34200   1025.2181      1244.9076     -7378.9698      207.80666     -7171.1632      3995.5691    
     34300   1061.5123      1288.9792     -7395.2184      215.16333     -7180.0551      5997.1333    
     34400   876.25005      1064.0179     -7378.7616      177.61158     -7201.15        16441.256    
     34500   942.98288      1145.0506     -7369.6798      191.13799     -7178.5418      2763.9297    
     34600   991.88054      1204.4264     -7340.9972      201.04931     -7139.9479      6653.4539    
     34700   1263.2909      1533.9961     -7392.4932      256.06285     -7136.4304      12308.76     
     34800   830.30834      1008.2316     -7362.8038      168.29942     -7194.5044      16172.193    
     34900   910.65746      1105.7983     -7386.9916      184.58579     -7202.4059      2250.2152    
     35000   989.46291      1201.4907     -7412.9443      200.55927     -7212.385      -6957.5082    
     35100   976.63234      1185.9107     -7425.5649      197.95857     -7227.6063      4754.2348    
     35200   873.32264      1060.4632     -7408.8923      177.01821     -7231.8741      1513.2241    
     35300   1092.9916      1327.2041     -7416.1463      221.54402     -7194.6023      11621.636    
     35400   1051.2558      1276.5249     -7384.1867      213.08438     -7171.1023      16631.131    
     35500   1103.664       1340.1635     -7380.7899      223.70728     -7157.0826      15566.796    
     35600   1055.2035      1281.3186     -7374.2631      213.88457     -7160.3785      21597.447    
     35700   935.51038      1135.9769     -7404.6251      189.62336     -7215.0017     -6337.8561    
     35800   914.57894      1110.5601     -7418.3036      185.38066     -7232.9229      5646.5513    
     35900   895.22208      1087.0554     -7391.6727      181.45711     -7210.2156      681.75064    
     36000   1160.8383      1409.5893     -7407.4732      235.29621     -7172.177       14754.18     
     36100   1060.1946      1287.3792     -7389.4035      214.89624     -7174.5073      7677.4531    
     36200   987.90578      1199.5999     -7381.1878      200.24365     -7180.9442      283.58095    
     36300   927.99287      1126.8485     -7374.1666      188.09959     -7186.067       1541.0924    
     36400   1125.9546      1367.2305     -7384.0421      228.22545     -7155.8166      13687.553    
     36500   1142.457       1387.2693     -7395.9549      231.57043     -7164.3845      6119.4315    
     36600   919.14522      1116.1049     -7404.366       186.30622     -7218.0598     -3957.4623    
     36700   901.132        1094.2317     -7408.0292      182.65503     -7225.3742      11176.384    
     36800   1098.7511      1334.1977     -7433.5878      222.71144     -7210.8764      8334.6623    
     36900   833.76744      1012.4319     -7375.4637      169.00056     -7206.4632      37477.643    
     37000   1133.8213      1376.783      -7383.4567      229.82001     -7153.6366      22895.45     
     37100   1018.4281      1236.6626     -7362.0611      206.43036     -7155.6307      10934.224    
     37200   953.78377      1158.166      -7395.3389      193.32728     -7202.0116      8081.9801    
     37300   1008.53        1224.6436     -7435.7155      204.42408     -7231.2914      3029.5431    
     37400   975.76034      1184.8518     -7424.6253      197.78182     -7226.8435      15166.988    
     37500   883.24461      1072.5113     -7388.3815      179.02934     -7209.3521      8446.324     
     37600   1111.6346      1349.842      -7405.2011      225.32286     -7179.8782      3649.0872    
     37700   1075.0653      1305.4365     -7378.5809      217.91045     -7160.6705      8235.5556    
     37800   1030.3832      1251.1797     -7353.2497      208.85362     -7144.3961      5287.2349    
     37900   967.80717      1175.1944     -7378.1431      196.16976     -7181.9734     -250.90621    
     38000   1049.1025      1273.9101     -7422.5745      212.64791     -7209.9266     -157.19973    
     38100   933.34568      1133.3483     -7415.325       189.18458     -7226.1404      14070.668    
     38200   966.5267       1173.6396     -7400.7637      195.91021     -7204.8535     -2731.7926    
     38300   1166.7186      1416.7297     -7389.2472      236.48812     -7152.759       22861.709    
     38400   1099.3488      1334.9236     -7388.2875      222.8326      -7165.4549      16174.919    
     38500   926.79436      1125.3932     -7384.1015      187.85666     -7196.2448      18640.841    
     38600   956.88169      1161.9278     -7391.8127      193.95521     -7197.8574      12656.305    
     38700   1093.0439      1327.2676     -7421.5136      221.55463     -7199.9589      26486.456    
     38800   880.54885      1069.2379     -7387.2854      178.48292     -7208.8025      3114.2519    
     38900   1059.4252      1286.4448     -7400.4587      214.74027     -7185.7185      3226.4177    
     39000   1136.5728      1380.1242     -7375.4079      230.37773     -7145.0302      7679.9614    
     39100   1025.945       1245.7903     -7336.6102      207.954       -7128.6562      8005.8079    
     39200   1011.094       1227.757      -7377.9916      204.94378     -7173.0478      5684.0823    
     39300   859.45858      1043.6283     -7383.9724      174.20803     -7209.7644      10879.42     
     39400   983.11392      1193.7812     -7404.766       199.27236     -7205.4936     -85.991771    
     39500   924.8686       1123.0547     -7382.4389      187.46632     -7194.9726      11032.049    
     39600   1159.5329      1408.0042     -7374.5538      235.03161     -7139.5222      32182.485    
     39700   1176.7994      1428.9707     -7359.9938      238.53146     -7121.4624      20068.02     
     39800   1095.9676      1330.8178     -7399.0365      222.14724     -7176.8892      5299.7666    
     39900   877.93206      1066.0604     -7376.6507      177.95251     -7198.6982      8030.2539    
     40000   1120.1894      1360.23       -7402.991       227.05689     -7175.9341      3080.9481    
Loop time of 374.55 on 1 procs for 40000 steps with 69 atoms

Performance: 2.307 ns/day, 10.404 hours/ns, 106.795 timesteps/s, 7.369 katom-step/s
97.3% CPU use with 1 MPI tasks x no OpenMP threads

MPI task timing breakdown:
Section |  min time  |  avg time  |  max time  |%varavg| %total
---------------------------------------------------------------
Pair    | 350.98     | 350.98     | 350.98     |   0.0 | 93.71
Neigh   | 1.2429     | 1.2429     | 1.2429     |   0.0 |  0.33
Comm    | 0.25531    | 0.25531    | 0.25531    |   0.0 |  0.07
Output  | 0.058424   | 0.058424   | 0.058424   |   0.0 |  0.02
Modify  | 21.938     | 21.938     | 21.938     |   0.0 |  5.86
Other   |            | 0.07669    |            |       |  0.02

Nlocal:             69 ave          69 max          69 min
Histogram: 1 0 0 0 0 0 0 0 0 0
Nghost:           1507 ave        1507 max        1507 min
Histogram: 1 0 0 0 0 0 0 0 0 0
Neighs:          22170 ave       22170 max       22170 min
Histogram: 1 0 0 0 0 0 0 0 0 0

Total # of neighbors = 22170
Ave neighs/atom = 321.30435
Neighbor list builds = 275
Dangerous builds = 0

write_data      structures/${MODEL}_ramp_${STAGE}_final.data nocoeff
write_data      structures/model_b_ramp_${STAGE}_final.data nocoeff
write_data      structures/model_b_ramp_1200K_final.data nocoeff
System init for write_data ...
WARNING: Fix recenter should come after all other integration fixes (src/fix_recenter.cpp:130)
print "${MODEL} ramp stage ${STAGE} (T=${TSTAGE} K) done -> structures/${MODEL}_ramp_${STAGE}_final.data"
model_b ramp stage 1200K (T=1200 K) done -> structures/model_b_ramp_1200K_final.data
Total wall time: 0:06:14
