thermo          100
thermo_style    custom step temp c_ctemp pe ke etotal press
# Unwrapped coords (xu yu zu) so Phase 7 can compute Li MSD across PBC.
dump            traj all custom ${DUMPEVERY} trajectories/model_b_production.lammpstrj id type xu yu zu
dump            traj all custom 100 trajectories/model_b_production.lammpstrj id type xu yu zu
dump_modify     traj sort id

# Initialize mobile-atom velocities at the production temperature.
velocity        mobile create ${TPROD} ${SEED} mom yes rot yes dist gaussian
velocity        mobile create 1200 ${SEED} mom yes rot yes dist gaussian
velocity        mobile create 1200 90210 mom yes rot yes dist gaussian

# NVT (Nose-Hoover) production.
fix             nvt mobile nvt temp ${TPROD} ${TPROD} ${TDAMP}
fix             nvt mobile nvt temp 1200 ${TPROD} ${TDAMP}
fix             nvt mobile nvt temp 1200 1200 ${TDAMP}
fix             nvt mobile nvt temp 1200 1200 25
timestep        ${DT}
timestep        0.25
run             ${NSTEPS}
run             80000

CITE-CITE-CITE-CITE-CITE-CITE-CITE-CITE-CITE-CITE-CITE-CITE-CITE

Your simulation uses code contributions which should be cited:

- pair reaxff command: doi:10.1016/j.parco.2011.08.005

@Article{Aktulga12,
 author = {H. M. Aktulga and J. C. Fogarty and S. A. Pandit and A. Y. Grama},
 title = {Parallel Reactive Molecular Dynamics: {N}umerical Methods and Algorithmic Techniques},
 journal = {Parallel Computing},
 year =    2012,
 volume =  38,
 number =  {4--5},
 pages =   {245--259}
}

- fix qeq/reaxff command: doi:10.1016/j.parco.2011.08.005

@Article{Aktulga12,
 author = {H. M. Aktulga and J. C. Fogarty and S. A. Pandit and A. Y. Grama},
 title = {Parallel Reactive Molecular Dynamics: {N}umerical Methods and Algorithmic Techniques},
 journal = {Parallel Computing},
 year =    2012,
 volume =  38,
 pages =   {245--259}
}

CITE-CITE-CITE-CITE-CITE-CITE-CITE-CITE-CITE-CITE-CITE-CITE-CITE

WARNING: Fix recenter should come after all other integration fixes (src/fix_recenter.cpp:130)
Neighbor list info ...
  update: every = 1 steps, delay = 0 steps, check = yes
  max neighbors/atom: 2000, page size: 100000
  master list distance cutoff = 12
  ghost atom cutoff = 12
  binsize = 6, bins = 2 2 7
  2 neighbor lists, perpetual/occasional/extra = 2 0 0
  (1) pair reaxff, perpetual
      attributes: half, newton off, ghost
      pair build: half/bin/ghost/newtoff
      stencil: full/ghost/bin/3d
      bin: standard
  (2) fix qeq/reaxff, perpetual, copy from (1)
      attributes: half, newton off
      pair build: copy
      stencil: none
      bin: none
Per MPI rank memory allocation (min/avg/max) = 97.5 | 97.5 | 97.5 Mbytes
   Step          Temp         c_ctemp         PotEng         KinEng         TotEng         Press     
         0   1002.7397      1200          -7582.2985      218.1953      -7364.1032      37897.851    
       100   748.35641      895.57406     -7496.3025      162.84171     -7333.4608      50108.228    
       200   745.24337      891.84862     -7458.4079      162.16431     -7296.2436      62259.98     
       300   1097.4014      1313.2837     -7507.7618      238.7936      -7268.9682      21791.866    
       400   1047.9279      1254.0777     -7525.8387      228.02821     -7297.8105      18277.145    
       500   942.02974      1127.3471     -7526.6911      204.98486     -7321.7062      28169.836    
       600   945.33361      1131.3009     -7521.2287      205.70377     -7315.5249      37787.637    
       700   946.31858      1132.4796     -7525.7287      205.9181      -7319.8106      32435.964    
       800   1024.9665      1226.5992     -7573.205       223.03181     -7350.1731      36274.176    
       900   1112.0109      1330.7671     -7590.5199      241.9726      -7348.5473      20537.089    
      1000   895.69744      1071.9002     -7559.7572      194.90299     -7364.8542      52137.95     
      1100   918.92641      1099.6988     -7589.9491      199.95759     -7389.9915      49912.82     
      1200   841.30791      1006.8111     -7610.191       183.06787     -7427.1232      52849.984    
      1300   750.85246      898.56114     -7619.017       163.38484     -7455.6321      31441.655    
      1400   814.71797      974.99036     -7582.1643      177.28193     -7404.8824      23332.536    
      1500   1112.8524      1331.7741     -7585.8257      242.15571     -7343.67        44581.04     
      1600   1158.7782      1386.7346     -7580.8506      252.14914     -7328.7014      55157.259    
      1700   1141.9201      1366.5602     -7621.6513      248.48083     -7373.1704      37911.75     
      1800   1046.432       1252.2875     -7631.26        227.70269     -7403.5573      24071.485    
      1900   921.89552      1103.252      -7623.9316      200.60367     -7423.3279      25245.453    
      2000   1020.3127      1221.03       -7629.569       222.01917     -7407.5498      33834.646    
      2100   1016.647       1216.6432     -7652.5575      221.22151     -7431.3359      23147.385    
      2200   969.59152      1160.3308     -7651.8133      210.98228     -7440.831       34418.709    
      2300   957.17014      1145.4659     -7647.1622      208.27939     -7438.8828      40393.043    
      2400   914.87981      1094.8562     -7635.3749      199.07705     -7436.2979      39350.836    
      2500   1081.8726      1294.6999     -7631.7094      235.41453     -7396.2948      28149.52     
      2600   1039.1368      1243.5572     -7637.5367      226.11527     -7411.4214      36643.889    
      2700   1008.0307      1206.3318     -7642.2872      219.3466      -7422.9406      31958.018    
      2800   930.24605      1113.2453     -7640.7556      202.42073     -7438.3349      33603.161    
      2900   1160.5697      1388.8785     -7653.5207      252.53897     -7400.9817      29897.542    
      3000   1140.3681      1364.7028     -7667.4517      248.14311     -7419.3086      35372.143    
      3100   1030.7724      1233.5473     -7665.5235      224.29519     -7441.2283      38686.918    
      3200   1047.2773      1253.299      -7680.282       227.88662     -7452.3954      25573.838    
      3300   1027.1952      1229.2664     -7680.2872      223.51679     -7456.7704      36741.293    
      3400   910.16093      1089.209      -7677.0263      198.05023     -7478.9761      38355.822    
      3500   985.02428      1178.7995     -7694.0083      214.34043     -7479.6679      31927.086    
      3600   1109.7325      1328.0405     -7676.0501      241.47683     -7434.5733      34712.568    
      3700   1311.7588      1569.8098     -7677.8075      285.43759     -7392.3699      34907.527    
      3800   993.4436       1188.8751     -7665.2162      216.17247     -7449.0437      47552.15     
      3900   969.06802      1159.7044     -7681.1387      210.86836     -7470.2703      27961.526    
      4000   1060.1429      1268.6956     -7692.8672      230.68618     -7462.181       26799.354    
      4100   1008.8046      1207.2579     -7690.501       219.515       -7470.986       34861.578    
      4200   993.82683      1189.3337     -7688.3728      216.25586     -7472.1169      28803.513    
      4300   998.15067      1194.5082     -7690.3974      217.19672     -7473.2007      38959.607    
      4400   1125.7126      1347.1642     -7706.5437      244.95408     -7461.5896      39683.446    
      4500   966.99089      1157.2186     -7701.7633      210.41638     -7491.3469      41649.231    
      4600   990.29149      1185.1029     -7702.326       215.48657     -7486.8394      28868.663    
      4700   875.22422      1047.3995     -7698.0156      190.44803     -7507.5676      42356.932    
      4800   1135.3557      1358.7043     -7696.1763      247.05241     -7449.1239      35478.768    
      4900   1153.3249      1380.2085     -7698.6732      250.96249     -7447.7107      37018.104    
      5000   1023.5932      1224.9558     -7702.1094      222.733       -7479.3764      40024.537    
      5100   989.24184      1183.8468     -7706.2625      215.25817     -7491.0043      33224.946    
      5200   986.76279      1180.8801     -7704.9495      214.71873     -7490.2307      27768.143    
      5300   1066.2295      1275.9796     -7704.2409      232.01061     -7472.2303      32369.348    
      5400   1000.9384      1197.8443     -7706.3787      217.80332     -7488.5754      32842.459    
      5500   941.12659      1126.2663     -7710.8579      204.78833     -7506.0696      28139.844    
      5600   1002.3951      1199.5876     -7714.2082      218.1203      -7496.0879      33052.777    
      5700   1144.7075      1369.8958     -7711.8976      249.08735     -7462.8102      33621.459    
      5800   1048.1578      1254.3527     -7711.1548      228.07822     -7483.0766      40496.722    
      5900   983.87631      1177.4258     -7719.535       214.09063     -7505.4443      30198.154    
      6000   901.958        1079.3924     -7715.1368      196.26528     -7518.8715      47324.624    
      6100   1040.1323      1244.7485     -7713.5242      226.33189     -7487.1923      36555.811    
      6200   1193.9985      1428.8834     -7715.8003      259.81304     -7455.9873      34506.174    
      6300   1063.6281      1272.8664     -7716.7963      231.44454     -7485.3518      43294.985    
      6400   1024.0803      1225.5387     -7716.8694      222.83898     -7494.0304      28588.803    
      6500   1049.2355      1255.6424     -7720.6578      228.31273     -7492.345       33455.16     
      6600   985.83807      1179.7734     -7721.8495      214.51751     -7507.332       32449.175    
      6700   934.61796      1118.4772     -7721.21        203.37206     -7517.838       28844.169    
      6800   878.64089      1051.4883     -7726.0127      191.1915      -7534.8212      28195.487    
      6900   789.87949      945.26562     -7727.0309      171.87709     -7555.1538      26134.073    
      7000   935.50023      1119.5331     -7724.9864      203.56404     -7521.4224      30071.988    
      7100   1136.9603      1360.6247     -7721.8444      247.40159     -7474.4428      33363.31     
      7200   1017.0439      1217.1182     -7724.0802      221.30788     -7502.7723      35274.785    
      7300   960.91519      1149.9477     -7727.0192      209.09431     -7517.9249      35378.037    
      7400   929.47206      1112.319      -7723.5988      202.25231     -7521.3465      34831.277    
      7500   1186.2187      1419.5733     -7724.2397      258.12017     -7466.1195      32958.783    
      7600   1170.392       1400.6331     -7722.3505      254.67629     -7467.6742      36181.295    
      7700   1050.467       1257.1163     -7727.7599      228.58072     -7499.1792      32306.943    
      7800   997.96267      1194.2832     -7729.1675      217.15581     -7512.0117      37612.099    
      7900   1008.9103      1207.3844     -7725.5028      219.538       -7505.9648      37169.5      
      8000   946.72009      1132.9601     -7728.4616      206.00547     -7522.4561      34434.285    
      8100   872.21184      1043.7945     -7732.2524      189.79254     -7542.4599      35493.991    
      8200   826.36922      988.93365     -7732.6874      179.81723     -7552.8702      36879.31     
      8300   1173.7482      1404.6495     -7727.5668      255.4066      -7472.1602      27922.226    
      8400   1098.1949      1314.2332     -7728.8232      238.96625     -7489.857       38581.891    
      8500   978.46325      1170.9478     -7731.1972      212.91276     -7518.2844      30608.317    
      8600   930.81837      1113.9302     -7731.341       202.54527     -7528.7958      34470.98     
      8700   1025.4095      1227.1294     -7730.3489      223.12822     -7507.2206      32172.378    
      8800   1230.5931      1472.677      -7727.6827      267.776       -7459.9067      38712.136    
      8900   1181.3626      1413.7618     -7732.7992      257.06349     -7475.7357      36070.27     
      9000   1022.904       1224.1311     -7729.5291      222.58303     -7506.9461      37070.402    
      9100   994.16753      1189.7415     -7731.1221      216.32999     -7514.7921      29216.391    
      9200   942.29587      1127.6656     -7734.6138      205.04277     -7529.571       31220.245    
      9300   969.93459      1160.7414     -7732.3107      211.05693     -7521.2538      31476.994    
      9400   1260.3231      1508.2555     -7732.6959      274.24522     -7458.4507      29406.518    
      9500   1154.056       1381.0834     -7733.8275      251.12158     -7482.7059      36756.39     
      9600   991.68972      1186.7762     -7733.3046      215.79082     -7517.5138      31266.133    
      9700   973.9812       1165.5841     -7734.418       211.93747     -7522.4805      36879.88     
      9800   924.99359      1106.9595     -7734.3929      201.2778      -7533.1151      36958.578    
      9900   1056.1975      1263.974      -7735.903       229.82766     -7506.0754      37171.114    
     10000   1162.3566      1391.0169     -7734.2163      252.92779     -7481.2885      37950.739    
     10100   967.54501      1157.8817     -7735.4384      210.53696     -7524.9015      36115.69     
     10200   940.47256      1125.4836     -7736.3649      204.64602     -7531.7189      34498.176    
     10300   1056.2739      1264.0655     -7736.6549      229.84428     -7506.8106      33872.853    
     10400   1040.371       1245.0341     -7734.9397      226.38382     -7508.5558      33604.8      
     10500   879.45836      1052.4666     -7737.7892      191.36938     -7546.4199      33148.488    
     10600   947.08645      1133.3985     -7737.766       206.08519     -7531.6808      32328.235    
     10700   1049.8047      1256.3237     -7736.2614      228.43659     -7507.8248      38322.33     
     10800   1000.8028      1197.682      -7736.1859      217.77382     -7518.4121      39235.264    
     10900   996.46465      1192.4905     -7736.6078      216.82984     -7519.778       32512.783    
     11000   908.33884      1087.0284     -7738.753       197.65374     -7541.0993      31787.16     
     11100   1000.673       1197.5267     -7737.7435      217.74558     -7519.998       40624.626    
     11200   1124.6836      1345.9328     -7736.8546      244.73017     -7492.1244      34937.871    
     11300   1171.5302      1401.9952     -7736.7966      254.92396     -7481.8726      31667.925    
     11400   1001.7365      1198.7994     -7737.5636      217.977       -7519.5866      31317.746    
     11500   1033.8049      1237.1764     -7737.6291      224.95506     -7512.674       34967.917    
     11600   978.608        1171.121      -7739.7126      212.94425     -7526.7683      34591.17     
     11700   935.89094      1120.0006     -7740.1208      203.64906     -7536.4717      31765.936    
     11800   910.21286      1089.2711     -7741.6774      198.06153     -7543.6158      33925.686    
     11900   1127.9137      1349.7983     -7740.2447      245.43304     -7494.8117      37388.022    
     12000   1137.6566      1361.4579     -7739.2509      247.55309     -7491.6978      36654.176    
     12100   952.34845      1139.6957     -7739.1823      207.2302      -7531.9521      34824.584    
     12200   915.52328      1095.6262     -7740.7307      199.21707     -7541.5137      31408.09     
     12300   1019.125       1219.6086     -7739.8339      221.76071     -7518.0731      31211.239    
     12400   1060.438       1269.0487     -7737.811       230.75039     -7507.0607      30968.849    
     12500   995.01277      1190.753      -7739.2876      216.51392     -7522.7737      33398.032    
     12600   880.85289      1054.1354     -7741.2824      191.67282     -7549.6096      29951.654    
     12700   1046.8123      1252.7426     -7741.0862      227.78545     -7513.3007      34709.521    
     12800   1143.2214      1368.1174     -7740.3857      248.76399     -7491.6217      36283.334    
     12900   971.26247      1162.3305     -7741.42        211.34587     -7530.0741      33616.518    
     13000   899.43829      1076.377      -7741.2574      195.71699     -7545.5404      35928.534    
     13100   1002.6615      1199.9063     -7740.5095      218.17827     -7522.3312      34042.864    
     13200   1088.2296      1302.3076     -7740.2639      236.79782     -7503.466       34185.597    
     13300   977.88574      1170.2567     -7741.3646      212.78709     -7528.5775      32793.25     
     13400   794.45243      950.73815     -7742.0185      172.87216     -7569.1464      36140.633    
     13500   966.10488      1156.1583     -7741.7801      210.22359     -7531.5565      32617.234    
     13600   1151.0195      1377.4496     -7741.6499      250.46085     -7491.189       32177.989    
     13700   1079.7838      1292.2003     -7742.5842      234.96002     -7507.6242      33499.033    
     13800   1043.6102      1248.9106     -7742.3732      227.08868     -7515.2845      33315.057    
     13900   983.36314      1176.8116     -7742.1588      213.97897     -7528.1798      32832.182    
     14000   1011.1661      1210.0841     -7742.6789      220.02888     -7522.65        32800.044    
     14100   889.38419      1064.345      -7743.2711      193.52923     -7549.7419      37752.473    
     14200   862.52405      1032.2009     -7743.3799      187.68448     -7555.6954      33373.94     
     14300   1068.5104      1278.7092     -7742.65        232.50694     -7510.1431      32705.086    
     14400   1159.0095      1387.0113     -7742.3157      252.19946     -7490.1163      34583.111    
     14500   990.67401      1185.5607     -7742.7493      215.56981     -7527.1795      35458.19     
     14600   979.14353      1171.7619     -7742.7792      213.06078     -7529.7184      34124.359    
     14700   1042.811       1247.9541     -7742.7241      226.91476     -7515.8093      33741.408    
     14800   1064.9731      1274.476      -7742.7139      231.73722     -7510.9767      36738.407    
     14900   995.50796      1191.3456     -7742.6738      216.62167     -7526.0521      32356.849    
     15000   988.94678      1183.4937     -7743.4498      215.19396     -7528.2559      34920.638    
     15100   1046.6155      1252.507      -7743.8827      227.74262     -7516.1401      31436.842    
     15200   998.46888      1194.889      -7743.8841      217.26596     -7526.6181      32509.966    
     15300   1000.5481      1197.3772     -7743.947       217.7184      -7526.2286      34730.243    
     15400   901.47517      1078.8145     -7743.5928      196.16022     -7547.4326      34769.592    
     15500   818.85765      979.9444      -7744.1926      178.18271     -7566.0099      34879.262    
     15600   1034.1529      1237.5928     -7744.2947      225.03077     -7519.264       32996.471    
     15700   1155.6951      1383.045      -7743.7491      251.47826     -7492.2708      35997.879    
     15800   1063.2269      1272.3862     -7743.8575      231.35724     -7512.5002      31164.387    
     15900   996.39364      1192.4055     -7744.4154      216.81439     -7527.601       34622.821    
     16000   1013.9619      1213.4299     -7743.9691      220.63724     -7523.3319      35283.741    
     16100   1015.0241      1214.7009     -7743.6273      220.86836     -7522.7589      34661.776    
     16200   850.73347      1018.0909     -7744.125       185.11887     -7559.0062      31400.165    
     16300   793.27968      949.3347      -7744.5825      172.61697     -7571.9655      32559.862    
     16400   980.65063      1173.5655     -7744.5711      213.38873     -7531.1824      36277.075    
     16500   1071.4872      1282.2716     -7744.0749      233.15469     -7510.9202      32630.754    
     16600   1013.1764      1212.4897     -7744.1567      220.4663      -7523.6904      32751.614    
     16700   903.18439      1080.86       -7744.6611      196.53214     -7548.1289      35755.676    
     16800   941.87901      1127.1667     -7744.82        204.95206     -7539.868       34510.607    
     16900   1241.6668      1485.9291     -7744.5699      270.18561     -7474.3843      35513.968    
     17000   1139.739       1363.95       -7744.5293      248.00622     -7496.523       36892.46     
     17100   996.90415      1193.0164     -7744.8552      216.92548     -7527.9297      32116.653    
     17200   995.26868      1191.0592     -7744.8287      216.5696      -7528.2591      33032.016    
     17300   986.53266      1180.6047     -7744.9754      214.66865     -7530.3068      31605.189    
     17400   944.40412      1130.1885     -7745.232       205.50152     -7539.7305      34322.846    
     17500   906.05185      1084.2916     -7745.0417      197.1561      -7547.8856      34290.93     
     17600   967.78798      1158.1725     -7744.7499      210.58983     -7534.1601      34527.299    
     17700   1163.6224      1392.5318     -7745.0238      253.20324     -7491.8205      32998.059    
     17800   1087.9745      1302.0022     -7745.3753      236.7423      -7508.633       33635.801    
     17900   910.15701      1089.2043     -7745.3482      198.04938     -7547.2988      34211.47     
     18000   984.90836      1178.6608     -7745.3509      214.31521     -7531.0357      31885.343    
     18100   1082.6278      1295.6037     -7745.6334      235.57887     -7510.0545      35375.901    
     18200   990.68904      1185.5787     -7745.4488      215.57308     -7529.8757      33162.592    
     18300   833.70809      997.71624     -7745.4817      181.41416     -7564.0675      32000.054    
     18400   955.49713      1143.4638     -7745.6995      207.91535     -7537.7842      32753.179    
     18500   1102.7175      1319.6455     -7745.6182      239.95036     -7505.6679      33032.31     
     18600   1076.8327      1288.6686     -7745.5895      234.31786     -7511.2716      33621.541    
     18700   1002.7168      1199.9725     -7745.5716      218.1903      -7527.3813      32809.676    
     18800   1025.3402      1227.0464     -7745.7678      223.11313     -7522.6547      35442.912    
     18900   1000.2638      1197.0371     -7745.5303      217.65655     -7527.8738      30671.565    
     19000   980.83611      1173.7875     -7745.6573      213.42909     -7532.2282      35476.649    
     19100   983.02829      1176.4109     -7745.6378      213.9061      -7531.7317      33459.578    
     19200   985.96737      1179.9282     -7745.869       214.54565     -7531.3234      32184.198    
     19300   1025.426       1227.1491     -7745.7588      223.1318      -7522.627       33250.513    
     19400   1020.7145      1221.5108     -7745.769       222.10659     -7523.6625      31838.96     
     19500   913.27306      1092.9333     -7745.7318      198.72743     -7547.0044      32391.889    
     19600   942.59084      1128.0185     -7746.2473      205.10695     -7541.1404      32847.876    
     19700   1071.0808      1281.7853     -7746.091       233.06626     -7513.0247      32375.012    
     19800   1224.907       1465.8723     -7745.8804      266.53869     -7479.3417      36554.815    
     19900   974.9719       1166.7697     -7745.8653      212.15304     -7533.7123      31184.389    
     20000   908.08143      1086.7204     -7745.9075      197.59773     -7548.3098      35505.094    
     20100   1022.957       1224.1944     -7745.9448      222.59455     -7523.3503      31233.822    
     20200   1139.0818      1363.1635     -7745.9823      247.86322     -7498.1191      36472.332    
     20300   921.47258      1102.7459     -7746.0831      200.51164     -7545.5715      33324.79     
     20400   886.00487      1060.3009     -7746.1721      192.79389     -7553.3782      34294.692    
     20500   1060.0655      1268.6029     -7746.2244      230.66933     -7515.5551      33459.541    
     20600   1108.125       1326.1168     -7746.0538      241.12704     -7504.9268      31397.513    
     20700   881.566        1054.9888     -7746.0563      191.828       -7554.2283      33540.841    
     20800   896.32309      1072.6489     -7746.3402      195.03913     -7551.3011      32188.566    
     20900   1026.128       1227.9893     -7746.1365      223.28457     -7522.8519      33907.148    
     21000   1097.6355      1313.5638     -7746.0519      238.84453     -7507.2073      33142.35     
     21100   949.44164      1136.217      -7746.1635      206.59768     -7539.5658      32786.558    
     21200   825.38337      987.75386     -7746.4276      179.60271     -7566.8249      33834.135    
     21300   938.94755      1123.6585     -7746.4244      204.31417     -7542.1103      31541.204    
     21400   1044.2678      1249.6976     -7746.3024      227.23178     -7519.0706      32826.101    
     21500   1044.5786      1250.0694     -7746.2467      227.29939     -7518.9473      35703.997    
     21600   960.51244      1149.4657     -7746.338       209.00668     -7537.3313      32621.344    
     21700   857.1744       1025.7989     -7746.4507      186.52041     -7559.9303      33596.485    
     21800   1005.7954      1203.6568     -7746.4947      218.86021     -7527.6345      31889.128    
     21900   1336.2943      1599.1719     -7746.3954      290.77649     -7455.6189      34079.215    
     22000   1144.6354      1369.8096     -7746.3767      249.07168     -7497.305       32970.811    
     22100   1018.4005      1218.7416     -7746.5163      221.60307     -7524.9132      34748.848    
     22200   932.93516      1116.4634     -7746.5601      203.00588     -7543.5542      31663.681    
     22300   955.8222       1143.8528     -7746.4045      207.98608     -7538.4184      33653.67     
     22400   1129.9326      1352.2144     -7746.3482      245.87236     -7500.4759      35413.081    
     22500   1189.3279      1423.294      -7746.4833      258.79672     -7487.6865      35140.471    
     22600   932.39213      1115.8135     -7746.6372      202.88772     -7543.7495      31105.562    
     22700   968.3039       1158.7899     -7746.5798      210.70209     -7535.8777      30777.523    
     22800   1087.3943      1301.3079     -7746.4062      236.61606     -7509.7901      34095.273    
     22900   1015.8032      1215.6334     -7746.684       221.0379      -7525.6461      33243.902    
     23000   861.63489      1031.1368     -7746.6791      187.491       -7559.1881      31861.732    
     23100   969.17978      1159.8381     -7746.6278      210.89268     -7535.7351      33294.877    
     23200   1083.127       1296.2012     -7746.5701      235.6875      -7510.8826      33782.717    
     23300   1029.1486      1231.6041     -7746.6337      223.94184     -7522.6918      33640.109    
     23400   1006.8205      1204.8835     -7746.7338      219.08326     -7527.6505      33623.97     
     23500   1013.655       1213.0626     -7746.5887      220.57045     -7526.0182      33634.908    
     23600   1016.1736      1216.0766     -7746.6504      221.1185      -7525.5319      31550.957    
     23700   986.75021      1180.865      -7746.7836      214.71599     -7532.0676      34892.245    
     23800   840.37061      1005.6894     -7746.8189      182.86392     -7563.9549      33678.742    
     23900   890.96681      1066.239      -7746.8199      193.87361     -7552.9463      32897.401    
     24000   1182.4362      1415.0466     -7746.7196      257.2971      -7489.4225      33830.673    
     24100   1152.5539      1379.2859     -7746.6384      250.79474     -7495.8437      33708.853    
     24200   1044.4706      1249.9402     -7746.8259      227.2759      -7519.55        34135.737    
     24300   966.18919      1156.2592     -7746.8371      210.24193     -7536.5951      34336.286    
     24400   945.60669      1131.6277     -7746.7824      205.7632      -7541.0192      32841.574    
     24500   1043.232       1248.458      -7746.6914      227.00638     -7519.685       35388.49     
     24600   1189.6885      1423.7256     -7746.7525      258.87519     -7487.8773      33435.544    
     24700   1033.4766      1236.7834     -7746.7664      224.88361     -7521.8828      35109.081    
     24800   914.37115      1094.2474     -7746.8513      198.96637     -7547.8849      32287.758    
     24900   1003.0496      1200.3708     -7746.9558      218.26272     -7528.6931      33886.99     
     25000   1122.5101      1343.3318     -7746.9244      244.25723     -7502.6672      33860.964    
     25100   968.73076      1159.3007     -7746.865       210.79497     -7536.07        32029.981    
     25200   880.89553      1054.1865     -7746.9137      191.6821      -7555.2316      32884.07     
     25300   1011.1824      1210.1036     -7746.9102      220.03242     -7526.8778      32460.443    
     25400   1159.5797      1387.6937     -7746.9111      252.32354     -7494.5876      35394.855    
     25500   922.38574      1103.8387     -7746.7779      200.71034     -7546.0676      32573.944    
     25600   861.29622      1030.7315     -7746.8707      187.41731     -7559.4534      33237.887    
     25700   1012.6904      1211.9082     -7746.9113      220.36055     -7526.5507      31624.623    
     25800   1118.902       1339.0139     -7747.0066      243.47211     -7503.5345      34150.568    
     25900   1002.0878      1199.2199     -7746.9064      218.05345     -7528.8529      34430.365    
     26000   902.56303      1080.1164     -7746.8472      196.39693     -7550.4503      33240.327    
     26100   985.06848      1178.8524     -7747.0404      214.35005     -7532.6904      32620.947    
     26200   1057.098       1265.0517     -7747.0191      230.0236      -7516.9955      35364.574    
     26300   1011.5258      1210.5144     -7746.8927      220.10713     -7526.7855      32599.2      
     26400   848.72413      1015.6862     -7746.9745      184.68163     -7562.2929      34041.859    
     26500   891.98355      1067.4557     -7747.0081      194.09485     -7552.9132      32490.26     
     26600   1244.8651      1489.7566     -7746.9129      270.88156     -7476.0313      35036.126    
     26700   1131.4476      1354.0274     -7746.9915      246.20202     -7500.7895      33120.732    
     26800   977.46202      1169.7496     -7747.0212      212.69489     -7534.3263      33037.57     
     26900   969.07988      1159.7185     -7747.0535      210.87094     -7536.1826      32511.233    
     27000   1010.1708      1208.893      -7747.1134      219.8123      -7527.3011      33816.867    
     27100   1049.395       1255.8333     -7747.0322      228.34743     -7518.6847      35039.944    
     27200   942.04735      1127.3681     -7746.9884      204.98869     -7541.9997      34341.187    
     27300   909.82194      1088.8033     -7747.0155      197.97647     -7549.0391      34596.994    
     27400   1024.3601      1225.8736     -7746.9739      222.89988     -7524.074       32042.701    
     27500   1230.854       1472.9892     -7747.0747      267.83276     -7479.2419      34589.915    
     27600   1016.5348      1216.5089     -7747.0719      221.1971      -7525.8748      35337.626    
     27700   929.21568      1112.0122     -7747.1439      202.19653     -7544.9474      32521.589    
     27800   1015.3688      1215.1135     -7747.0574      220.94338     -7526.114       33639.014    
     27900   1089.7485      1304.1253     -7747.0454      237.12834     -7509.917       33603.024    
     28000   978.89241      1171.4614     -7747.0875      213.00614     -7534.0814      34915.339    
     28100   851.54689      1019.0643     -7747.1193      185.29586     -7561.8235      32988.483    
     28200   992.67987      1187.9612     -7747.1045      216.00628     -7531.0982      34005.899    
     28300   1150.6317      1376.9854     -7747.0501      250.37645     -7496.6737      34501.804    
     28400   1061.2916      1270.0703     -7747.0145      230.93614     -7516.0784      32631.997    
     28500   1013.7191      1213.1393     -7747.0464      220.5844      -7526.462       34339.706    
     28600   1018.4691      1218.8237     -7747.1493      221.618       -7525.5313      33016.455    
     28700   977.49784      1169.7925     -7747.1016      212.70268     -7534.3989      34230.561    
     28800   937.78801      1122.2709     -7747.1321      204.06186     -7543.0702      32083.638    
     28900   983.42682      1176.8878     -7747.1611      213.99282     -7533.1682      33947.927    
     29000   1155.0114      1382.2268     -7747.1308      251.32949     -7495.8013      34990.957    
     29100   1112.7464      1331.6474     -7747.1871      242.13266     -7505.0544      33854.63     
     29200   924.65193      1106.5507     -7747.1379      201.20346     -7545.9345      32447.232    
     29300   985.90832      1179.8575     -7747.1996      214.5328      -7532.6668      32388.36     
     29400   1074.4329      1285.7967     -7747.1701      233.79566     -7513.3745      33778.329    
     29500   1006.486       1204.4832     -7747.0959      219.01048     -7528.0855      32698.139    
     29600   838.76443      1003.7673     -7747.1603      182.51441     -7564.6459      32746.226    
     29700   959.19033      1147.8835     -7747.2263      208.71898     -7538.5073      33671.786    
     29800   1153.0365      1379.8633     -7747.1612      250.89974     -7496.2615      34099.832    
     29900   1094.092       1309.3232     -7747.1827      238.07348     -7509.1092      34912.954    
     30000   1040.4203      1245.0932     -7747.1591      226.39456     -7520.7645      32300.57     
     30100   1003.3922      1200.7808     -7747.1456      218.33728     -7528.8083      33984.05     
     30200   961.50825      1150.6574     -7747.2237      209.22336     -7538.0003      32036.472    
     30300   922.19812      1103.6141     -7747.2405      200.66951     -7546.571       33656.872    
     30400   1006.3848      1204.3622     -7747.1797      218.98846     -7528.1913      34506.115    
     30500   1161.5193      1390.0149     -7747.2128      252.74559     -7494.4673      33905.526    
     30600   1037.6237      1241.7463     -7747.2148      225.78601     -7521.4288      34165.496    
     30700   912.58323      1092.1078     -7747.239       198.57732     -7548.6617      33733.133    
     30800   992.72094      1188.0103     -7747.2876      216.01522     -7531.2723      33544.116    
     30900   1103.0056      1319.9903     -7747.1824      240.01305     -7507.1694      33620.48     
     31000   958.76397      1147.3733     -7747.2646      208.62621     -7538.6384      34331.739    
     31100   851.1317       1018.5674     -7747.2454      185.20552     -7562.0399      32137.53     
     31200   1005.0106      1202.7176     -7747.2058      218.68943     -7528.5164      35181.431    
     31300   1151.4274      1377.9377     -7747.2357      250.5496      -7496.6861      33100.509    
     31400   1013.6728      1213.0838     -7747.2193      220.57432     -7526.645       32996.328    
     31500   946.94743      1133.2322     -7747.2383      206.05494     -7541.1834      33099.648    
     31600   1012.0359      1211.1249     -7747.2861      220.21813     -7527.068       33240.547    
     31700   1069.1566      1279.4825     -7747.2557      232.64756     -7514.6081      33335.872    
     31800   953.19911      1140.7137     -7747.2683      207.4153      -7539.853       32386.92     
     31900   858.68476      1027.6063     -7747.302       186.84906     -7560.4529      32190.275    
     32000   1020.727       1221.5258     -7747.2596      222.10931     -7525.1503      34922.886    
     32100   1302.7242      1558.9979     -7747.2538      283.47167     -7463.7821      34219.668    
     32200   1114.9881      1334.33       -7747.2833      242.62045     -7504.6628      32723.713    
     32300   993.55509      1189.0085     -7747.3259      216.19673     -7531.1292      33668.591    
     32400   950.4062       1137.3713     -7747.3226      206.80756     -7540.5151      33723.94     
     32500   988.69851      1183.1966     -7747.3467      215.13994     -7532.2068      33138.745    
     32600   1106.1587      1323.7637     -7747.2954      240.69917     -7506.5963      33921.352    
     32700   1054.9516      1262.483      -7747.2765      229.55655     -7517.7199      33522.783    
     32800   901.32333      1078.6328     -7747.3622      196.12718     -7551.235       33677.454    
     32900   949.87273      1136.7329     -7747.3525      206.69148     -7540.661       33487.128    
     33000   1133.5002      1356.4839     -7747.3812      246.64867     -7500.7325      34369.606    
     33100   1174.6803      1405.765      -7747.2846      255.60943     -7491.6752      34379.435    
     33200   912.52867      1092.0425     -7747.3416      198.56545     -7548.7761      31958.844    
     33300   935.99898      1120.1299     -7747.3429      203.67257     -7543.6703      33942.705    
     33400   1086.0643      1299.7163     -7747.3374      236.32666     -7511.0107      34254.085    
     33500   1119.9128      1340.2236     -7747.2994      243.69206     -7503.6074      34186.722    
     33600   887.86741      1062.5298     -7747.3501      193.19918     -7554.1509      31868.914    
     33700   918.64018      1099.3563     -7747.3555      199.89531     -7547.4602      33062.948    
     33800   1062.281       1271.2543     -7747.3536      231.15143     -7516.2021      33849.679    
     33900   1097.3691      1313.245      -7747.3095      238.78657     -7508.5229      35228.826    
     34000   868.59049      1039.4608     -7747.3359      189.00454     -7558.3313      31894.955    
     34100   880.63333      1053.8727     -7747.3171      191.62505     -7555.6921      32735.744    
     34200   1027.831       1230.0272     -7747.3607      223.65513     -7523.7056      33943.244    
     34300   1114.3197      1333.5301     -7747.4039      242.47499     -7504.9289      34107.791    
     34400   952.55233      1139.9397     -7747.3146      207.27456     -7540.04        32215.595    
     34500   884.62591      1058.6507     -7747.3933      192.49383     -7554.8995      32824.501    
     34600   991.67738      1186.7615     -7747.3589      215.78814     -7531.5708      33635.912    
     34700   1051.8668      1258.7914     -7747.3522      228.8853      -7518.4669      33938.724    
     34800   1033.594       1236.924      -7747.2948      224.90916     -7522.3856      32817.267    
     34900   969.09146      1159.7324     -7747.3193      210.87346     -7536.4458      32786.099    
     35000   872.42131      1044.0452     -7747.3438      189.83812     -7557.5056      32621.448    
     35100   761.7644       911.6197      -7747.3427      165.75927     -7581.5834      30640.848    
     35200   984.01652      1177.5935     -7747.3568      214.12114     -7533.2356      32498.206    
     35300   1146.7678      1372.3615     -7747.3359      249.53568     -7497.8002      34051.211    
     35400   1035.1171      1238.7467     -7747.3331      225.24059     -7522.0925      32721.923    
     35500   948.58895      1135.1966     -7747.3541      206.41213     -7540.942       34043.187    
     35600   992.96146      1188.2981     -7747.3577      216.06755     -7531.2902      32649.692    
     35700   1072.756       1283.79       -7747.3966      233.43078     -7513.9658      33286.894    
     35800   1050.4429      1257.0874     -7747.2943      228.57546     -7518.7189      34102.346    
     35900   909.56794      1088.4993     -7747.3776      197.92119     -7549.4564      32451.226    
     36000   932.86799      1116.383      -7747.3957      202.99127     -7544.4044      31861.277    
     36100   1114.1636      1333.3434     -7747.3451      242.44104     -7504.904       33658.653    
     36200   1144.0867      1369.153      -7747.3493      248.95228     -7498.397       33606.285    
     36300   902.52126      1080.0664     -7747.3825      196.38784     -7550.9947      33176.578    
     36400   949.90716      1136.7741     -7747.4032      206.69898     -7540.7043      32299.049    
     36500   1085.6948      1299.2741     -7747.3744      236.24625     -7511.1282      33294.501    
     36600   1061.0329      1269.7607     -7747.3991      230.87984     -7516.5193      33945.832    
     36700   844.50628      1010.6387     -7747.3137      183.76384     -7563.5499      32521.467    
     36800   926.47953      1108.7378     -7747.4019      201.60114     -7545.8008      34677.949    
     36900   1082.6869      1295.6745     -7747.3549      235.59173     -7511.7632      34536.987    
     37000   1066.1693      1275.9076     -7747.377       231.99752     -7515.3795      33748.848    
     37100   993.81126      1189.3151     -7747.3344      216.25247     -7531.082       33528.596    
     37200   1011.9239      1210.9909     -7747.3484      220.19377     -7527.1546      32202.777    
     37300   1031.2424      1234.1097     -7747.3812      224.39744     -7522.9838      33903.215    
     37400   995.77397      1191.6639     -7747.4091      216.67955     -7530.7295      34204.118    
     37500   884.20252      1058.144      -7747.3389      192.4017      -7554.9372      31744.599    
     37600   836.31332      1000.834      -7747.3366      181.98105     -7565.3556      34242.692    
     37700   1066.9495      1276.8413     -7747.3554      232.1673      -7515.1881      32642.221    
     37800   1198.0431      1433.7237     -7747.394       260.69314     -7486.7009      35046.721    
     37900   1012.4663      1211.64       -7747.3404      220.31179     -7527.0286      34518.258    
     38000   966.96494      1157.1876     -7747.3083      210.41073     -7536.8975      32117.263    
     38100   1007.3615      1205.531      -7747.3077      219.20099     -7528.1068      34338.857    
     38200   1050.072       1256.6435     -7747.3812      228.49475     -7518.8864      33968.839    
     38300   893.16348      1068.8678     -7747.3444      194.3516      -7552.9928      32354.326    
     38400   867.89242      1038.6254     -7747.42        188.85264     -7558.5674      32807.42     
     38500   1086.5985      1300.3556     -7747.3529      236.44289     -7510.91        33937.954    
     38600   1172.5679      1403.237      -7747.3157      255.14976     -7492.1659      34286.181    
     38700   980.02668      1172.8188     -7747.3654      213.25296     -7534.1125      33634.944    
     38800   988.43061      1182.876      -7747.3726      215.08164     -7532.291       33403.393    
     38900   1036.5847      1240.503      -7747.3397      225.55994     -7521.7798      34262.976    
     39000   1016.7005      1216.7072     -7747.3581      221.23315     -7526.1249      31832.554    
     39100   907.21513      1085.6837     -7747.364       197.40923     -7549.9548      33413.283    
     39200   889.93755      1065.0072     -7747.3828      193.64964     -7553.7332      33652.062    
     39300   1139.2237      1363.3333     -7747.3914      247.89409     -7499.4973      33122.787    
     39400   1220.1496      1460.179      -7747.3482      265.5035      -7481.8447      33198.266    
     39500   1011.0047      1209.8908     -7747.3547      219.99374     -7527.361       33550.46     
     39600   992.19996      1187.3868     -7747.3687      215.90185     -7531.4668      32887.404    
     39700   1004.4621      1202.0612     -7747.376       218.57009     -7528.8059      34426.379    
     39800   993.20501      1188.5896     -7747.3527      216.12055     -7531.2322      32450.921    
     39900   893.82056      1069.6541     -7747.4434      194.49458     -7552.9489      32624.311    
     40000   894.64292      1070.6383     -7747.4136      194.67353     -7552.7401      32696.262    
     40100   1130.3818      1352.752      -7747.3848      245.97011     -7501.4147      34452.586    
     40200   1195.8348      1431.0809     -7747.367       260.21261     -7487.1544      34472.391    
     40300   978.9374       1171.5152     -7747.3763      213.01593     -7534.3603      31816.181    
     40400   989.59486      1184.2693     -7747.3487      215.33498     -7532.0137      33834.321    
     40500   1037.2871      1241.3436     -7747.3488      225.71278     -7521.6361      32189.534    
     40600   1011.1446      1210.0582     -7747.3249      220.02418     -7527.3007      32689.721    
     40700   876.22435      1048.5963     -7747.4095      190.66566     -7556.7438      31591.527    
     40800   900.33851      1077.4543     -7747.3647      195.91288     -7551.4518      31509.152    
     40900   1210.7267      1448.9025     -7747.3168      263.45309     -7483.8637      34715.834    
     41000   1184.8168      1417.8955     -7747.2731      257.81511     -7489.458       34648.991    
     41100   1042.034       1247.0243     -7747.3346      226.74569     -7520.5889      33345.548    
     41200   990.82996      1185.7473     -7747.3315      215.60374     -7531.7278      32229.647    
     41300   963.42893      1152.9559     -7747.4192      209.6413      -7537.7779      32532.655    
     41400   984.91781      1178.6721     -7747.3311      214.31726     -7533.0138      33598.409    
     41500   1026.6021      1228.5566     -7747.3038      223.38773     -7523.9161      32536.24     
     41600   1008.3926      1206.7649     -7747.3671      219.42535     -7527.9418      32967.742    
     41700   936.78691      1121.0729     -7747.3768      203.84402     -7543.5328      33859.1      
     41800   920.54438      1101.6351     -7747.3507      200.30966     -7547.041       33000.413    
     41900   1064.9897      1274.4959     -7747.3         231.74084     -7515.5591      33703.191    
     42000   1245.3637      1490.3533     -7747.2421      270.99007     -7476.252       32906.407    
     42100   984.36371      1178.009      -7747.357       214.19669     -7533.1603      33114        
     42200   954.34037      1142.0795     -7747.2879      207.66364     -7539.6242      34791.003    
     42300   1028.8207      1231.2116     -7747.2705      223.87049     -7523.4         33229.612    
     42400   1076.653       1288.4536     -7747.3827      234.27876     -7513.1039      33911.567    
     42500   914.37457      1094.2515     -7747.332       198.96712     -7548.3649      33585.892    
     42600   871.26002      1042.6554     -7747.3589      189.58543     -7557.7735      32843.262    
     42700   1049.548       1256.0164     -7747.339       228.38073     -7518.9582      35117.621    
     42800   1157.1821      1384.8245     -7747.3056      251.80182     -7495.5038      34428.207    
     42900   902.31076      1079.8145     -7747.3539      196.34204     -7551.0119      31667.388    
     43000   891.3792       1066.7325     -7747.3026      193.96334     -7553.3392      33571.291    
     43100   1065.8766      1275.5573     -7747.3085      231.93383     -7515.3746      33462.603    
     43200   1120.7655      1341.2439     -7747.2548      243.87759     -7503.3772      33999.653    
     43300   955.99508      1144.0597     -7747.3439      208.0237      -7539.3202      32546.012    
     43400   915.89894      1096.0758     -7747.3679      199.29882     -7548.0691      33060.711    
     43500   1030.5821      1233.3196     -7747.3506      224.25377     -7523.0968      35411.398    
     43600   1155.7841      1383.1515     -7747.3091      251.49762     -7495.8114      33781.07     
     43700   1041.3623      1246.2205     -7747.3403      226.59954     -7520.7407      33390.145    
     43800   897.66347      1074.253      -7747.3166      195.33079     -7551.9859      32755.606    
     43900   962.0788       1151.3402     -7747.3211      209.34751     -7537.9735      33872.048    
     44000   1147.4747      1373.2074     -7747.3268      249.6895      -7497.6373      33974.084    
     44100   1059.8059      1268.2923     -7747.4081      230.61284     -7516.7953      33278.667    
     44200   890.1983       1065.3193     -7747.3702      193.70638     -7553.6639      33291.029    
     44300   979.36904      1172.0318     -7747.408       213.10985     -7534.2981      33720.441    
     44400   1103.3171      1320.3631     -7747.4216      240.08085     -7507.3407      34221.384    
     44500   1011.2151      1210.1427     -7747.3482      220.03954     -7527.3087      34093.49     
     44600   836.03474      1000.5006     -7747.3985      181.92044     -7565.478       31947.914    
     44700   951.9663       1139.2384     -7747.3558      207.14704     -7540.2088      31534.352    
     44800   1079.8677      1292.3007     -7747.3395      234.97828     -7512.3612      33877.657    
     44900   1062.628       1271.6696     -7747.3475      231.22694     -7516.1205      33405.549    
     45000   943.53542      1129.1489     -7747.3762      205.31249     -7542.0638      32025.943    
     45100   951.08468      1138.1833     -7747.3705      206.9552      -7540.4153      33422.525    
     45200   1009.868       1208.5306     -7747.3383      219.74641     -7527.5919      33633.42     
     45300   1047.072       1253.0533     -7747.3657      227.84195     -7519.5238      34217.105    
     45400   996.45717      1192.4815     -7747.4068      216.82822     -7530.5786      32784.622    
     45500   907.1179       1085.5673     -7747.3001      197.38807     -7549.912       31831.026    
     45600   942.22851      1127.5849     -7747.3085      205.02811     -7542.2804      31906.577    
     45700   1188.6754      1422.5132     -7747.3322      258.65474     -7488.6775      35740.615    
     45800   1166.8053      1396.3407     -7747.3438      253.89582     -7493.448       34846.273    
     45900   961.74526      1150.9411     -7747.2549      209.27494     -7537.98        32777.685    
     46000   976.73185      1168.8758     -7747.2997      212.53601     -7534.7637      34396.429    
     46100   1046.268       1252.0912     -7747.3348      227.66701     -7519.6678      33147.944    
     46200   1019.9819      1220.6341     -7747.3433      221.94717     -7525.3961      33208.433    
     46300   858.19631      1027.0218     -7747.3237      186.74277     -7560.5809      32102.293    
     46400   932.28608      1115.6866     -7747.326       202.86464     -7544.4614      32423.903    
     46500   1182.7386      1415.4084     -7747.1887      257.36288     -7489.8258      33449.93     
     46600   1126.8859      1348.5684     -7747.2536      245.2094      -7502.0442      34015.668    
     46700   984.63292      1178.3312     -7747.2655      214.25527     -7533.0102      33129.482    
     46800   1004.7417      1202.3958     -7747.2618      218.63092     -7528.6308      33810.085    
     46900   1018.2797      1218.5971     -7747.3292      221.57679     -7525.7524      35706.361    
     47000   993.73751      1189.2269     -7747.2573      216.23642     -7531.0209      33195.118    
     47100   924.86053      1106.8003     -7747.3563      201.24885     -7546.1074      33633.129    
     47200   929.0383       1111.7999     -7747.305       202.15793     -7545.1471      32328.678    
     47300   1105.2798      1322.7118     -7747.2456      240.50792     -7506.7377      34208.555    
     47400   1186.7082      1420.159      -7747.2427      258.22668     -7489.016       34069.086    
     47500   958.2911       1146.8074     -7747.3638      208.52331     -7538.8404      32814.508    
     47600   949.90473      1136.7712     -7747.2555      206.69845     -7540.557       31507.09     
     47700   1051.5958      1258.4671     -7747.3888      228.82633     -7518.5624      35824.298    
     47800   1079.506       1291.8679     -7747.3044      234.89958     -7512.4048      34430.948    
     47900   871.14095      1042.5129     -7747.3781      189.55952     -7557.8186      33112.532    
     48000   891.4572       1066.8258     -7747.2922      193.98031     -7553.3119      32764.46     
     48100   1076.8912      1288.7387     -7747.2812      234.33059     -7512.9507      33308.518    
     48200   1119.9705      1340.2925     -7747.2796      243.7046      -7503.575       34228.985    
     48300   1009.9671      1208.6492     -7747.2909      219.76798     -7527.523       33829.644    
     48400   1022.3963      1223.5234     -7747.3437      222.47254     -7524.8712      31965.596    
     48500   1006.5886      1204.606      -7747.298       219.03281     -7528.2652      34353.232    
     48600   967.06825      1157.3112     -7747.3202      210.43321     -7536.887       33246.654    
     48700   928.25243      1110.8595     -7747.3205      201.98693     -7545.3336      31429.385    
     48800   956.86763      1145.1039     -7747.3219      208.21357     -7539.1083      32827.567    
     48900   1106.7749      1324.5011     -7747.3305      240.83326     -7506.4973      32836.109    
     49000   1110.5767      1329.0508     -7747.3593      241.66052     -7505.6988      34072.852    
     49100   916.64358      1096.9669     -7747.3135      199.46085     -7547.8526      33160.37     
     49200   939.64328      1124.4911     -7747.351       204.46556     -7542.8854      32755.186    
     49300   1067.9666      1278.0584     -7747.3252      232.3886      -7514.9366      31714.98     
     49400   1098.1083      1314.1296     -7747.3407      238.94741     -7508.3933      33386.088    
     49500   858.13358      1026.9467     -7747.3202      186.72912     -7560.5911      32765.387    
     49600   914.41189      1094.2962     -7747.3044      198.97524     -7548.3292      32926.892    
     49700   1118.2828      1338.2728     -7747.3454      243.33736     -7504.008       32015.158    
     49800   1112.7658      1331.6706     -7747.2794      242.13688     -7505.1425      34764.048    
     49900   911.75181      1091.1128     -7747.3854      198.3964      -7548.989       32373.507    
     50000   961.71341      1150.9029     -7747.2879      209.268       -7538.0199      33585.192    
     50100   1058.4328      1266.6491     -7747.396       230.31407     -7517.082       33037.115    
     50200   1045.4359      1251.0954     -7747.2853      227.48595     -7519.7993      33816.989    
     50300   863.88837      1033.8336     -7747.3817      187.98136     -7559.4003      32389.677    
     50400   884.70242      1058.7422     -7747.3303      192.51048     -7554.8198      31842.33     
     50500   1108.5816      1326.6632     -7747.3403      241.22639     -7506.1139      34380.896    
     50600   1151.167       1377.6261     -7747.343       250.49294     -7496.8501      33364.34     
     50700   1049.1486      1255.5385     -7747.3464      228.29383     -7519.0526      33053.818    
     50800   956.05438      1144.1307     -7747.2568      208.03661     -7539.2202      34353.511    
     50900   945.31355      1131.2769     -7747.3509      205.69941     -7541.6515      34278.347    
     51000   1055.9357      1263.6607     -7747.2885      229.77069     -7517.5178      32100.154    
     51100   1186.9449      1420.4422     -7747.3791      258.27818     -7489.101       35138.05     
     51200   984.75646      1178.479      -7747.401       214.28215     -7533.1188      33401.053    
     51300   918.31295      1098.9647     -7747.379       199.8241      -7547.5549      33077.005    
     51400   1010.9965      1209.8811     -7747.3431      219.99197     -7527.3511      33577.504    
     51500   1147.16        1372.8309     -7747.2937      249.62103     -7497.6726      33587.482    
     51600   988.92931      1183.4728     -7747.3356      215.19016     -7532.1455      32716.132    
     51700   875.14189      1047.3009     -7747.382       190.43012     -7556.9519      33165.403    
     51800   1007.795       1206.0498     -7747.4353      219.29533     -7528.14        32830.321    
     51900   1164.1398      1393.1509     -7747.4248      253.3158      -7494.109       34843.65     
     52000   963.31637      1152.8212     -7747.3794      209.61681     -7537.7626      33047.811    
     52100   886.35266      1060.7171     -7747.3936      192.86957     -7554.524       33150.556    
     52200   1024.055       1225.5085     -7747.3911      222.83349     -7524.5576      33312.828    
     52300   1121.4258      1342.0342     -7747.3699      244.02129     -7503.3486      34337.457    
     52400   951.18174      1138.2995     -7747.42        206.97632     -7540.4437      32963.527    
     52500   878.18679      1050.9449     -7747.4322      191.09269     -7556.3395      32128.525    
     52600   995.06441      1190.8148     -7747.4681      216.52515     -7530.9429      33186.822    
     52700   1068.0522      1278.1609     -7747.4322      232.40724     -7515.0249      33529.537    
     52800   1024.6528      1226.2238     -7747.4042      222.96356     -7524.4406      33666.151    
     52900   886.15454      1060.48       -7747.3918      192.82646     -7554.5653      33246.331    
     53000   734.47234      878.9587      -7747.3834      159.82054     -7587.5628      33022.964    
     53100   778.41871      931.55026     -7747.4051      169.38324     -7578.0219      32272.29     
     53200   1096.5781      1312.2984     -7747.4043      238.61444     -7508.7898      33981.373    
     53300   1100.6414      1317.161      -7747.4136      239.49861     -7507.915       33418.682    
     53400   947.76894      1134.2153     -7747.4632      206.2337      -7541.2295      33487.617    
     53500   934.75724      1118.6439     -7747.4551      203.40237     -7544.0527      34692.654    
     53600   1059.5641      1268.0029     -7747.4166      230.56022     -7516.8564      32022.694    
     53700   1282.1465      1534.372      -7747.4168      278.99396     -7468.4228      34748.614    
     53800   1043.6042      1248.9034     -7747.433       227.08737     -7520.3457      34387.977    
     53900   940.67011      1125.72       -7747.4335      204.689       -7542.7445      33152.077    
     54000   997.07607      1193.2222     -7747.438       216.96289     -7530.4751      34130.39     
     54100   1092.9012      1307.8981     -7747.4316      237.81435     -7509.6173      33088.805    
     54200   1004.213       1201.7631     -7747.419       218.51589     -7528.9031      34270.122    
     54300   868.45771      1039.3018     -7747.391       188.97564     -7558.4153      33124.563    
     54400   972.69209      1164.0413     -7747.407       211.65696     -7535.7501      32850.373    
     54500   1163.0474      1391.8436     -7747.4019      253.07811     -7494.3238      33861.759    
     54600   992.7507       1188.0459     -7747.315       216.02169     -7531.2933      32657.174    
     54700   858.81347      1027.7604     -7747.2791      186.87707     -7560.402       31713.522    
     54800   1026.3805      1228.2915     -7747.3422      223.33951     -7524.0027      33173.02     
     54900   1155.3338      1382.6126     -7747.3539      251.39964     -7495.9543      33026.068    
     55000   987.86877      1182.2036     -7747.3514      214.95939     -7532.3921      34157.407    
     55100   921.37828      1102.633      -7747.3876      200.49112     -7546.8965      34054.437    
     55200   1005.4361      1203.2268     -7747.3995      218.78202     -7528.6175      33905.574    
     55300   1060.4514      1269.0648     -7747.378       230.75331     -7516.6247      33208.841    
     55400   966.01281      1156.0481     -7747.423       210.20355     -7537.2194      33013.717    
     55500   776.00516      928.66191     -7747.4637      168.85805     -7578.6056      32937.632    
     55600   910.44028      1089.5433     -7747.4414      198.11102     -7549.3304      33012.392    
     55700   1047.1284      1253.1209     -7747.4323      227.85424     -7519.5781      34329.683    
     55800   1067.7072      1277.7479     -7747.3948      232.33216     -7515.0626      33260.707    
     55900   947.16226      1133.4893     -7747.4041      206.10169     -7541.3024      33311.084    
     56000   869.83         1040.9441     -7747.3684      189.27425     -7558.0942      33020.74     
     56100   1062.1177      1271.0588     -7747.4041      231.11588     -7516.2882      33341.027    
     56200   1267.7351      1517.1256     -7747.3596      275.85805     -7471.5016      34610.144    
     56300   1025.6505      1227.4179     -7747.3697      223.18067     -7524.1891      33143.879    
     56400   956.89151      1145.1325     -7747.425       208.21876     -7539.2063      33378.174    
     56500   990.01407      1184.7709     -7747.4445      215.4262      -7532.0183      34398.577    
     56600   1061.7775      1270.6518     -7747.4568      231.04187     -7516.4149      34086.249    
     56700   1034.9421      1238.5372     -7747.3999      225.2025      -7522.1974      34081.013    
     56800   895.88061      1072.1194     -7747.4016      194.94285     -7552.4587      32265.02     
     56900   931.00259      1114.1506     -7747.3876      202.58536     -7544.8022      33530.847    
     57000   1161.834       1390.3915     -7747.3704      252.81407     -7494.5563      34152.633    
     57100   1192.9316      1427.6067     -7747.41        259.58088     -7487.8291      34880.262    
     57200   921.86648      1103.2173     -7747.4         200.59735     -7546.8027      32850.272    
     57300   974.39093      1166.0744     -7747.4203      212.02662     -7535.3937      33162.337    
     57400   1083.2001      1296.2886     -7747.4382      235.7034      -7511.7349      34011.544    
     57500   1062.4049      1271.4026     -7747.4299      231.17839     -7516.2515      35503.536    
     57600   890.05356      1065.1461     -7747.4297      193.67488     -7553.7548      32187.36     
     57700   932.35499      1115.7691     -7747.453       202.87964     -7544.5733      32222.478    
     57800   1072.9726      1284.0492     -7747.4203      233.47791     -7513.9424      35328.131    
     57900   1076.6335      1288.4303     -7747.386       234.27452     -7513.1115      34367.658    
     58000   789.5957       944.926       -7747.463       171.81534     -7575.6477      31772.076    
     58100   910.83526      1090.016      -7747.3422      198.19696     -7549.1452      32401.391    
     58200   1122.0016      1342.7233     -7747.3689      244.14658     -7503.2223      33873.15     
     58300   1080.9244      1293.5653     -7747.3684      235.20822     -7512.1602      36125.473    
     58400   932.40371      1115.8274     -7747.426       202.89024     -7544.5357      32846.677    
     58500   967.44472      1157.7617     -7747.3629      210.51513     -7536.8478      32993.466    
     58600   1039.1225      1243.5401     -7747.3937      226.11216     -7521.2815      33680.12     
     58700   1050.0835      1256.6573     -7747.3666      228.49727     -7518.8693      33605.198    
     58800   1005.6876      1203.5278     -7747.3929      218.83675     -7528.5561      34206.347    
     58900   1023.6278      1224.9972     -7747.3855      222.74053     -7524.645       33585.994    
     59000   1030.4765      1233.1932     -7747.3996      224.2308      -7523.1688      32816.766    
     59100   986.3724       1180.4129     -7747.4247      214.63378     -7532.791       33438.324    
     59200   908.75849      1087.5307     -7747.3251      197.74506     -7549.58        33568.195    
     59300   862.37425      1032.0216     -7747.3481      187.65189     -7559.6963      33233.7      
     59400   1006.4457      1204.4351     -7747.3183      219.00172     -7528.3166      32200.167    
     59500   1208.282       1445.9768     -7747.3997      262.92111     -7484.4786      34305.845    
     59600   1044.4541      1249.9205     -7747.2988      227.27231     -7520.0265      33614.448    
     59700   968.3913       1158.8945     -7747.299       210.72111     -7536.5779      33629.762    
     59800   1006.1177      1204.0425     -7747.3765      218.93035     -7528.4462      34045.371    
     59900   1038.5232      1242.8228     -7747.3882      225.98174     -7521.4065      33336.243    
     60000   924.91143      1106.8612     -7747.404       201.25992     -7546.1441      32778.843    
     60100   850.22306      1017.4801     -7747.3588      185.0078      -7562.351       34556.589    
     60200   1023.2875      1224.59       -7747.2695      222.66648     -7524.603       32786.967    
     60300   1211.3868      1449.6923     -7747.3647      263.59671     -7483.768       34568.644    
     60400   1090.234       1304.7063     -7747.3743      237.23398     -7510.1403      34364.484    
     60500   1023.6026      1224.967      -7747.4385      222.73503     -7524.7035      32647.506    
     60600   977.04006      1169.2447     -7747.2541      212.60307     -7534.6511      34253.929    
     60700   953.31439      1140.8517     -7747.3504      207.44039     -7539.91        31677.431    
     60800   1003.6757      1201.1201     -7747.272       218.39896     -7528.873       32763.88     
     60900   1096.7917      1312.554      -7747.2227      238.66093     -7508.5618      33591.016    
     61000   1014.0814      1213.5728     -7747.2409      220.66324     -7526.5777      35091.333    
     61100   895.12596      1071.2163     -7747.2851      194.77863     -7552.5065      33436.8      
     61200   978.71139      1171.2448     -7747.3376      212.96675     -7534.3709      33919.387    
     61300   1212.5028      1451.028      -7747.2593      263.83957     -7483.4198      33999.663    
     61400   1180.9031      1413.2119     -7747.2335      256.96348     -7490.2701      32724.322    
     61500   919.92499      1100.8938     -7747.2965      200.17488     -7547.1216      32830.048    
     61600   973.32146      1164.7945     -7747.3279      211.79391     -7535.534       31536.627    
     61700   1089.9309      1304.3435     -7747.3184      237.16801     -7510.1504      35745.736    
     61800   1050.8762      1257.606      -7747.2038      228.66975     -7518.5341      34257.157    
     61900   883.6802       1057.5189     -7747.3262      192.28805     -7555.0382      33185.167    
     62000   939.55035      1124.3799     -7747.3967      204.44534     -7542.9513      33027.908    
     62100   1105.4042      1322.8607     -7747.2897      240.53499     -7506.7548      34365.589    
     62200   1037.7196      1241.8612     -7747.3473      225.80689     -7521.5404      34004.675    
     62300   804.01769      962.18511     -7747.3114      174.95355     -7572.3578      33006.091    
     62400   964.43608      1154.1612     -7747.3588      209.86045     -7537.4983      32477.778    
     62500   1150.9193      1377.3296     -7747.324       250.43903     -7496.885       34859.103    
     62600   1045.4251      1251.0825     -7747.3789      227.4836      -7519.8953      33254.488    
     62700   930.69828      1113.7865     -7747.3479      202.51914     -7544.8288      32301.684    
     62800   981.56332      1174.6577     -7747.3398      213.58733     -7533.7525      33017.969    
     62900   1061.9106      1270.811      -7747.338       231.07083     -7516.2672      35347.465    
     63000   1026.9377      1228.9582     -7747.2739      223.46076     -7523.8132      34410.927    
     63100   779.29111      932.59428     -7747.3666      169.57307     -7577.7936      32208.594    
     63200   819.07143      980.20024     -7747.4138      178.22923     -7569.1846      33004.151    
     63300   1002.1259      1199.2655     -7747.3749      218.06173     -7529.3132      32425.909    
     63400   1108.1897      1326.1942     -7747.2771      241.14112     -7506.136       33958.769    
     63500   993.17851      1188.5579     -7747.2946      216.11478     -7531.1799      32810.447    
     63600   894.41181      1070.3617     -7747.3445      194.62324     -7552.7212      33037.889    
     63700   973.37111      1164.8539     -7747.3257      211.80471     -7535.5209      32840.683    
     63800   1325.6206      1586.3984     -7747.2846      288.45389     -7458.8308      34394.617    
     63900   1336.7041      1599.6622     -7747.2468      290.86564     -7456.3811      36509.543    
     64000   1091.391       1306.0909     -7747.1961      237.48574     -7509.7104      34261.159    
     64100   956.21409      1144.3218     -7747.2989      208.07136     -7539.2276      33818.845    
     64200   929.25287      1112.0567     -7747.3504      202.20462     -7545.1458      33855.008    
     64300   1038.9033      1243.2777     -7747.2834      226.06446     -7521.219       32970.777    
     64400   1121.9531      1342.6652     -7747.2145      244.13602     -7503.0785      35198.13     
     64500   953.868        1141.5142     -7747.2056      207.56085     -7539.6448      32753.08     
     64600   881.62393      1055.0581     -7747.2651      191.8406      -7555.4245      33566.864    
     64700   1021.6211      1222.5958     -7747.3433      222.30388     -7525.0394      34217.103    
     64800   1109.2303      1327.4395     -7747.2974      241.36755     -7505.9298      33157.512    
     64900   899.95385      1076.994      -7747.2446      195.82918     -7551.4154      34089.16     
     65000   811.42735      971.05241     -7747.271       176.56589     -7570.7051      32729.387    
     65100   1010.592       1209.397      -7747.3081      219.90394     -7527.4042      32851.446    
     65200   1152.3796      1379.0772     -7747.2903      250.75679     -7496.5335      34850.68     
     65300   1012.3232      1211.4687     -7747.2383      220.28065     -7526.9577      32126.259    
     65400   928.35965      1110.9878     -7747.2807      202.01026     -7545.2704      33239.252    
     65500   1001.7742      1198.8446     -7747.3302      217.9852      -7529.345       32684.176    
     65600   1054.6051      1262.0684     -7747.3238      229.48116     -7517.8427      35055.045    
     65700   959.11964      1147.7989     -7747.3263      208.7036      -7538.6227      33034.862    
     65800   783.91859      938.13208     -7747.3267      170.58001     -7576.7467      30986.541    
     65900   929.15287      1111.937      -7747.3319      202.18286     -7545.1491      34301.373    
     66000   1083.7431      1296.9385     -7747.3322      235.82156     -7511.5106      34777.093    
     66100   1055.0771      1262.6333     -7747.3561      229.58387     -7517.7723      33273.213    
     66200   943.13689      1128.672      -7747.37        205.22577     -7542.1442      34333.205    
     66300   940.41557      1125.4153     -7747.3741      204.63361     -7542.7405      33355.783    
     66400   1186.3164      1419.6901     -7747.3719      258.14141     -7489.2305      34842.302    
     66500   1326.2911      1587.2008     -7747.3877      288.5998      -7458.7879      34952.021    
     66600   1039.1014      1243.5148     -7747.3337      226.10756     -7521.2262      33877.722    
     66700   956.35687      1144.4926     -7747.3644      208.10243     -7539.262       34658.343    
     66800   965.5642       1155.5113     -7747.3904      210.10593     -7537.2845      31988.112    
     66900   1046.3563      1252.1969     -7747.4134      227.68623     -7519.7272      33934.25     
     67000   1081.5472      1294.3106     -7747.428       235.34373     -7512.0842      35069.611    
     67100   928.67836      1111.3692     -7747.4348      202.07961     -7545.3552      34045.984    
     67200   887.97044      1062.6532     -7747.464       193.2216      -7554.2424      32159.992    
     67300   1077.6248      1289.6166     -7747.4246      234.49022     -7512.9344      33318.437    
     67400   1254.6561      1501.4737     -7747.3881      273.01208     -7474.3761      34486.498    
     67500   928.27414      1110.8854     -7747.4241      201.99165     -7545.4325      33864.06     
     67600   930.06358      1113.0269     -7747.3914      202.38103     -7545.0104      32529.16     
     67700   1080.1699      1292.6624     -7747.4149      235.04404     -7512.3709      33705.821    
     67800   1110.8206      1329.3427     -7747.4203      241.7136      -7505.7067      35361.76     
     67900   919.63639      1100.5485     -7747.4062      200.11208     -7547.2942      32072.591    
     68000   921.41734      1102.6798     -7747.4243      200.49962     -7546.9246      32742.091    
     68100   1037.2651      1241.3173     -7747.4056      225.708       -7521.6976      33179.441    
     68200   1082.8868      1295.9137     -7747.442       235.63522     -7511.8067      33146.993    
     68300   979.838        1172.593      -7747.4142      213.2119      -7534.2023      33496.362    
     68400   736.36714      881.22624     -7747.4269      160.23285     -7587.194       31108.064    
     68500   739.19098      884.60559     -7747.4239      160.84732     -7586.5766      32217.935    
     68600   922.65809      1104.1646     -7747.3855      200.7696      -7546.6159      32876.526    
     68700   1117.1301      1336.8934     -7747.3998      243.08654     -7504.3132      34555.966    
     68800   1094.8613      1310.2438     -7747.4055      238.24087     -7509.1646      32997.425    
     68900   926.96825      1109.3227     -7747.4458      201.70749     -7545.7383      33243.231    
     69000   949.60884      1136.4171     -7747.4185      206.63406     -7540.7844      33969.629    
     69100   1077.5915      1289.5767     -7747.3762      234.48298     -7512.8932      34384.868    
     69200   1193.374       1428.1361     -7747.3649      259.67715     -7487.6878      34871.465    
     69300   986.07413      1180.0559     -7747.4166      214.56888     -7532.8477      32496.873    
     69400   903.99752      1081.8331     -7747.3881      196.70908     -7550.6791      33431.536    
     69500   1011.4773      1210.4564     -7747.3619      220.09658     -7527.2653      32735.702    
     69600   1160.2235      1388.4642     -7747.3935      252.46363     -7494.9299      34594.607    
     69700   986.4733       1180.5336     -7747.4702      214.65574     -7532.8145      32370.328    
     69800   884.97374      1059.0669     -7747.3862      192.56952     -7554.8167      32659.983    
     69900   1020.1794      1220.8704     -7747.3672      221.99014     -7525.3771      33874.267    
     70000   1116.8153      1336.5167     -7747.3731      243.01805     -7504.3551      33728.302    
     70100   926.20843      1108.4134     -7747.3641      201.54215     -7545.8219      33041.776    
     70200   858.60102      1027.5061     -7747.4115      186.83084     -7560.5807      32634.858    
     70300   1010.0213      1208.714      -7747.3706      219.77975     -7527.5909      32047.506    
     70400   1103.498       1320.5796     -7747.3424      240.12021     -7507.2222      35279.087    
     70500   996.2002       1192.174      -7747.3648      216.7723      -7530.5925      33823.598    
     70600   861.65921      1031.1659     -7747.4108      187.4963      -7559.9145      32120.089    
     70700   959.39771      1148.1317     -7747.3397      208.76411     -7538.5756      31075.035    
     70800   1412.2361      1690.053      -7747.3885      307.30134     -7440.0871      35283.597    
     70900   1165.4585      1394.7291     -7747.332       253.60277     -7493.7292      35902.18     
     71000   969.21846      1159.8844     -7747.379       210.9011      -7536.4779      33780.364    
     71100   919.93402      1100.9047     -7747.3687      200.17685     -7547.1919      30865.392    
     71200   1021.9153      1222.9478     -7747.4083      222.36789     -7525.0404      35175.611    
     71300   1130.4108      1352.7867     -7747.385       245.97642     -7501.4086      34561.038    
     71400   978.17415      1170.6018     -7747.4001      212.84985     -7534.5503      34288.77     
     71500   882.99808      1056.7026     -7747.4396      192.13962     -7555.3         33103.97     
     71600   1001.4895      1198.5038     -7747.3939      217.92325     -7529.4707      32674.668    
     71700   1111.0439      1329.61       -7747.4203      241.7622      -7505.6581      34093.27     
     71800   941.76772      1127.0335     -7747.3649      204.92784     -7542.4371      33688.609    
     71900   810.45987      969.8946      -7747.3745      176.35537     -7571.0192      32191.523    
     72000   995.28535      1191.0792     -7747.4059      216.57323     -7530.8327      33745.124    
     72100   1134.8096      1358.0509     -7747.3906      246.93359     -7500.457       33308.723    
     72200   1010.7822      1209.6246     -7747.4027      219.94533     -7527.4574      34049.214    
     72300   917.54269      1098.0429     -7747.3754      199.6565      -7547.7189      34430.423    
     72400   982.26339      1175.4955     -7747.3874      213.73966     -7533.6478      32834.116    
     72500   1053.0996      1260.2667     -7747.4226      229.15355     -7518.269       33355.772    
     72600   1032.1         1235.1361     -7747.4035      224.58406     -7522.8194      33439.241    
     72700   964.35356      1154.0625     -7747.4069      209.8425      -7537.5644      32953.234    
     72800   793.94092      950.12602     -7747.4085      172.76086     -7574.6477      33112.393    
     72900   759.8718       909.35478     -7747.3817      165.34745     -7582.0342      31577.233    
     73000   1023.3866      1224.7085     -7747.3866      222.68803     -7524.6986      33837.028    
     73100   1088.0769      1302.1248     -7747.4203      236.76459     -7510.6557      32349.373    
     73200   998.3467       1194.7428     -7747.4408      217.23938     -7530.2014      33569.493    
     73300   914.81655      1094.7805     -7747.4028      199.06329     -7548.3395      34587.185    
     73400   992.54069      1187.7946     -7747.435       215.97599     -7531.459       32828.489    
     73500   1307.2349      1564.3958     -7747.4281      284.45318     -7462.9749      35066.729    
     73600   1129.2681      1351.4192     -7747.4346      245.72776     -7501.7069      33563.973    
     73700   988.5706       1183.0435     -7747.4027      215.11211     -7532.2906      33661.164    
     73800   982.30152      1175.5412     -7747.3983      213.74796     -7533.6503      33333.203    
     73900   998.76239      1195.2402     -7747.4443      217.32983     -7530.1145      33489.015    
     74000   996.35042      1192.3538     -7747.4556      216.80499     -7530.6506      33246.339    
     74100   932.54909      1116.0014     -7747.4758      202.92187     -7544.5539      33051.217    
     74200   922.47254      1103.9426     -7747.4257      200.72923     -7546.6965      32848.834    
     74300   1063.1599      1272.3061     -7747.4471      231.34268     -7516.1044      33996.898    
     74400   1200.1576      1436.2542     -7747.4285      261.15325     -7486.2753      34052.909    
     74500   965.54151      1155.4841     -7747.4595      210.101       -7537.3585      33624.073    
     74600   936.01391      1120.1478     -7747.4582      203.67582     -7543.7824      31974.614    
     74700   1033.7534      1237.1147     -7747.443       224.94384     -7522.4992      33066.295    
     74800   1096.207       1311.8543     -7747.4286      238.5337      -7508.8949      35189.104    
     74900   895.31355      1071.4408     -7747.433       194.81945     -7552.6136      32017.732    
     75000   867.783        1038.4944     -7747.3892      188.82883     -7558.5603      32268.16     
     75100   1060.6651      1269.3205     -7747.4246      230.7998      -7516.6248      32791.555    
     75200   1116.7673      1336.4592     -7747.3988      243.00759     -7504.3912      33476.399    
     75300   1039.4885      1243.978      -7747.4075      226.1918      -7521.2157      32679.449    
     75400   1013.7355      1213.1589     -7747.4018      220.58796     -7526.8138      33268.302    
     75500   1007.467       1205.6572     -7747.3772      219.22395     -7528.1532      35045.351    
     75600   967.83935      1158.234      -7747.4108      210.601       -7536.8098      32809.965    
     75700   869.92816      1041.0616     -7747.3869      189.29561     -7558.0913      33207.36     
     75800   882.2167       1055.7675     -7747.355       191.96959     -7555.3854      32668.471    
     75900   1140.5464      1364.9161     -7747.3906      248.1819      -7499.2087      35492.001    
     76000   1167.9334      1397.6908     -7747.3656      254.14129     -7493.2243      33554.272    
     76100   980.86847      1173.8262     -7747.3929      213.43613     -7533.9567      35058.116    
     76200   990.71261      1185.6069     -7747.3761      215.57821     -7531.7979      33619.238    
     76300   1031.8843      1234.8779     -7747.4022      224.53713     -7522.8651      33789.894    
     76400   979.5104       1172.201      -7747.37        213.14061     -7534.2294      31371.564    
     76500   839.3119       1004.4224     -7747.3951      182.63354     -7564.7615      33359.149    
     76600   919.93114      1100.9012     -7747.4311      200.17622     -7547.2549      32603.985    
     76700   1213.6521      1452.4034     -7747.4181      264.08965     -7483.3285      35513.188    
     76800   1134.4407      1357.6093     -7747.4205      246.85331     -7500.5672      34226.194    
     76900   1022.1434      1223.2208     -7747.4361      222.41752     -7525.0186      33574.015    
     77000   981.20234      1174.2258     -7747.4101      213.50878     -7533.9013      33327.352    
     77100   980.34572      1173.2006     -7747.4209      213.32238     -7534.0985      33238.972    
     77200   977.32955      1169.5911     -7747.4364      212.66606     -7534.7703      34023.218    
     77300   952.48056      1139.8538     -7747.4065      207.25894     -7540.1476      32892.921    
     77400   972.88623      1164.2737     -7747.4303      211.6992      -7535.7311      34081.26     
     77500   1061.2208      1269.9855     -7747.4025      230.92072     -7516.4818      33037.747    
     77600   1056.999       1264.9332     -7747.446       230.00206     -7517.4439      33017.509    
     77700   895.19846      1071.3031     -7747.4454      194.79441     -7552.651       34257.371    
     77800   910.85303      1090.0372     -7747.4331      198.20083     -7549.2323      32673.336    
     77900   1147.3262      1373.0297     -7747.4646      249.65718     -7497.8074      34134.898    
     78000   1254.8082      1501.6557     -7747.452       273.04518     -7474.4069      34051.977    
     78100   931.94136      1115.2741     -7747.4689      202.78963     -7544.6792      33371.382    
     78200   974.80075      1166.5648     -7747.4553      212.1158      -7535.3395      32794.234    
     78300   1072.6891      1283.71       -7747.4136      233.41623     -7513.9974      32851.862    
     78400   1056.575       1264.4258     -7747.447       229.9098      -7517.5372      33483.203    
     78500   907.02729      1085.4589     -7747.3986      197.36835     -7550.0302      34433.901    
     78600   918.12152      1098.7356     -7747.4559      199.78245     -7547.6735      33529.215    
     78700   1150.2107      1376.4816     -7747.4451      250.28484     -7497.1602      33624.238    
     78800   1318.8496      1578.2955     -7747.4013      286.98054     -7460.4207      36403.312    
     78900   975.01393      1166.82       -7747.4017      212.16219     -7535.2395      34264.024    
     79000   963.73522      1153.3225     -7747.4153      209.70795     -7537.7073      34055.68     
     79100   1028.0222      1230.2561     -7747.3625      223.69675     -7523.6657      32730.98     
     79200   1051.29        1258.1012     -7747.4086      228.7598      -7518.6488      33333.064    
     79300   943.08546      1128.6105     -7747.3888      205.21458     -7542.1743      33051.657    
     79400   889.68999      1064.711      -7747.4053      193.59577     -7553.8096      33552.055    
     79500   1044.2381      1249.662      -7747.4348      227.2253      -7520.2095      33431.271    
     79600   1274.1623      1524.8172     -7747.3795      277.25662     -7470.1228      33643.429    
     79700   1041.525       1246.4152     -7747.4196      226.63494     -7520.7846      34725.379    
     79800   988.14693      1182.5365     -7747.4237      215.01992     -7532.4038      35135.456    
     79900   1000.2532      1197.0243     -7747.47        217.65423     -7529.8158      32873.736    
     80000   1005.0946      1202.8182     -7747.3991      218.70772     -7528.6914      31864.507    
Loop time of 775.441 on 1 procs for 80000 steps with 74 atoms

Performance: 2.228 ns/day, 10.770 hours/ns, 103.167 timesteps/s, 7.634 katom-step/s
98.7% CPU use with 1 MPI tasks x no OpenMP threads

MPI task timing breakdown:
Section |  min time  |  avg time  |  max time  |%varavg| %total
---------------------------------------------------------------
Pair    | 729.97     | 729.97     | 729.97     |   0.0 | 94.14
Neigh   | 0.19847    | 0.19847    | 0.19847    |   0.0 |  0.03
Comm    | 0.52979    | 0.52979    | 0.52979    |   0.0 |  0.07
Output  | 0.097709   | 0.097709   | 0.097709   |   0.0 |  0.01
Modify  | 44.489     | 44.489     | 44.489     |   0.0 |  5.74
Other   |            | 0.1539     |            |       |  0.02

Nlocal:             74 ave          74 max          74 min
Histogram: 1 0 0 0 0 0 0 0 0 0
Nghost:           1646 ave        1646 max        1646 min
Histogram: 1 0 0 0 0 0 0 0 0 0
Neighs:          22913 ave       22913 max       22913 min
Histogram: 1 0 0 0 0 0 0 0 0 0

Total # of neighbors = 22913
Ave neighs/atom = 309.63514
Neighbor list builds = 39
Dangerous builds = 0

write_data      structures/model_b_production_final.data nocoeff
System init for write_data ...
WARNING: Fix recenter should come after all other integration fixes (src/fix_recenter.cpp:130)
print "Model B production done -> structures/model_b_production_final.data"
Model B production done -> structures/model_b_production_final.data
Total wall time: 0:12:55
