thermo          25
thermo_style    custom step temp pe etotal press
dump            traj all atom 25 trajectories/model_b_equilibrate_short.lammpstrj

# Initial velocities for the mobile atoms only (bottom stays put).
velocity        mobile create ${TEQ} 48291 mom yes rot yes dist gaussian
velocity        mobile create 300 48291 mom yes rot yes dist gaussian

# Short NVT on the mobile atoms. Timestep 0.25 fs (Phase 3 conservative choice;
# Olou'ou Guifo et al. [4] used 0.5 and 0.1 fs).
fix             nvt mobile nvt temp ${TEQ} ${TEQ} 25.0
fix             nvt mobile nvt temp 300 ${TEQ} 25.0
fix             nvt mobile nvt temp 300 300 25.0
timestep        0.25
run             500          # 125 fs -- short stability check only

CITE-CITE-CITE-CITE-CITE-CITE-CITE-CITE-CITE-CITE-CITE-CITE-CITE

Your simulation uses code contributions which should be cited:

- pair reaxff command: doi:10.1016/j.parco.2011.08.005

@Article{Aktulga12,
 author = {H. M. Aktulga and J. C. Fogarty and S. A. Pandit and A. Y. Grama},
 title = {Parallel Reactive Molecular Dynamics: {N}umerical Methods and Algorithmic Techniques},
 journal = {Parallel Computing},
 year =    2012,
 volume =  38,
 number =  {4--5},
 pages =   {245--259}
}

- fix qeq/reaxff command: doi:10.1016/j.parco.2011.08.005

@Article{Aktulga12,
 author = {H. M. Aktulga and J. C. Fogarty and S. A. Pandit and A. Y. Grama},
 title = {Parallel Reactive Molecular Dynamics: {N}umerical Methods and Algorithmic Techniques},
 journal = {Parallel Computing},
 year =    2012,
 volume =  38,
 pages =   {245--259}
}

CITE-CITE-CITE-CITE-CITE-CITE-CITE-CITE-CITE-CITE-CITE-CITE-CITE

Neighbor list info ...
  update: every = 1 steps, delay = 0 steps, check = yes
  max neighbors/atom: 2000, page size: 100000
  master list distance cutoff = 12
  ghost atom cutoff = 12
  binsize = 6, bins = 2 2 7
  2 neighbor lists, perpetual/occasional/extra = 2 0 0
  (1) pair reaxff, perpetual
      attributes: half, newton off, ghost
      pair build: half/bin/ghost/newtoff
      stencil: full/ghost/bin/3d
      bin: standard
  (2) fix qeq/reaxff, perpetual, copy from (1)
      attributes: half, newton off
      pair build: copy
      stencil: none
      bin: none
Per MPI rank memory allocation (min/avg/max) = 135.8 | 135.8 | 135.8 Mbytes
   Step          Temp          PotEng         TotEng         Press     
         0   247.05882     -7183.8134     -7133.7358      68927.682    
        25   221.90968     -7178.6666     -7133.6866      48726.85     
        50   216.43353     -7176.8907     -7133.0206      60463.34     
        75   216.67851     -7175.2521     -7131.3324      98645.524    
       100   287.63095     -7186.5767     -7128.2753      46786.537    
       125   360.44749     -7198.895      -7125.8341      69006.45     
       150   419.00278     -7212.7074     -7127.7776      70454.351    
       175   398.45398     -7217.2769     -7136.5122      69671.209    
       200   387.74364     -7225.7047     -7147.111       61399.297    
       225   424.94061     -7241.3577     -7155.2244      42887.192    
       250   462.24373     -7258.2906     -7164.596       48155.637    
       275   417.00511     -7261.2721     -7176.7472      42370.303    
       300   449.90369     -7282.136      -7190.9428      58841.585    
       325   462.76167     -7300.0331     -7206.2336      53501.76     
       350   456.58287     -7315.3441     -7222.797       39372.005    
       375   461.18173     -7333.4792     -7240           21275.733    
       400   440.93576     -7346.8824     -7257.5069      17600.773    
       425   414.60156     -7357.9735     -7273.9358      29808.388    
       450   345.75297     -7358.1907     -7288.1083      29181.354    
       475   375.49088     -7378.2551     -7302.145       26017.967    
       500   290.16446     -7371.6963     -7312.8814      19413.214    
Loop time of 5.32974 on 1 procs for 500 steps with 69 atoms

Performance: 2.026 ns/day, 11.844 hours/ns, 93.813 timesteps/s, 6.473 katom-step/s
99.7% CPU use with 1 MPI tasks x no OpenMP threads

MPI task timing breakdown:
Section |  min time  |  avg time  |  max time  |%varavg| %total
---------------------------------------------------------------
Pair    | 5.0449     | 5.0449     | 5.0449     |   0.0 | 94.65
Neigh   | 0.011451   | 0.011451   | 0.011451   |   0.0 |  0.21
Comm    | 0.0040935  | 0.0040935  | 0.0040935  |   0.0 |  0.08
Output  | 0.0018266  | 0.0018266  | 0.0018266  |   0.0 |  0.03
Modify  | 0.26646    | 0.26646    | 0.26646    |   0.0 |  5.00
Other   |            | 0.00105    |            |       |  0.02

Nlocal:             69 ave          69 max          69 min
Histogram: 1 0 0 0 0 0 0 0 0 0
Nghost:           2246 ave        2246 max        2246 min
Histogram: 1 0 0 0 0 0 0 0 0 0
Neighs:          22261 ave       22261 max       22261 min
Histogram: 1 0 0 0 0 0 0 0 0 0

Total # of neighbors = 22261
Ave neighs/atom = 322.62319
Neighbor list builds = 2
Dangerous builds = 0

write_data      structures/model_b_sv_equilibrated.data nocoeff
System init for write_data ...

print "Model B short equilibration done -> structures/model_b_sv_equilibrated.data"
Model B short equilibration done -> structures/model_b_sv_equilibrated.data
Total wall time: 0:00:05
