thermo          25
thermo_style    custom step temp pe etotal press
dump            traj all atom 25 trajectories/model_a_minimize.lammpstrj

# Conjugate-gradient minimization (conservative tolerances / step caps).
min_style       cg
minimize        1.0e-4 1.0e-6 2000 20000

CITE-CITE-CITE-CITE-CITE-CITE-CITE-CITE-CITE-CITE-CITE-CITE-CITE

Your simulation uses code contributions which should be cited:

- pair reaxff command: doi:10.1016/j.parco.2011.08.005

@Article{Aktulga12,
 author = {H. M. Aktulga and J. C. Fogarty and S. A. Pandit and A. Y. Grama},
 title = {Parallel Reactive Molecular Dynamics: {N}umerical Methods and Algorithmic Techniques},
 journal = {Parallel Computing},
 year =    2012,
 volume =  38,
 number =  {4--5},
 pages =   {245--259}
}

- fix qeq/reaxff command: doi:10.1016/j.parco.2011.08.005

@Article{Aktulga12,
 author = {H. M. Aktulga and J. C. Fogarty and S. A. Pandit and A. Y. Grama},
 title = {Parallel Reactive Molecular Dynamics: {N}umerical Methods and Algorithmic Techniques},
 journal = {Parallel Computing},
 year =    2012,
 volume =  38,
 pages =   {245--259}
}

CITE-CITE-CITE-CITE-CITE-CITE-CITE-CITE-CITE-CITE-CITE-CITE-CITE

Neighbor list info ...
  update: every = 1 steps, delay = 0 steps, check = yes
  max neighbors/atom: 2000, page size: 100000
  master list distance cutoff = 12
  ghost atom cutoff = 12
  binsize = 6, bins = 2 2 7
  2 neighbor lists, perpetual/occasional/extra = 2 0 0
  (1) pair reaxff, perpetual
      attributes: half, newton off, ghost
      pair build: half/bin/ghost/newtoff
      stencil: full/ghost/bin/3d
      bin: standard
  (2) fix qeq/reaxff, perpetual, copy from (1)
      attributes: half, newton off
      pair build: copy
      stencil: none
      bin: none
Per MPI rank memory allocation (min/avg/max) = 138.2 | 138.2 | 138.2 Mbytes
   Step          Temp          PotEng         TotEng         Press     
         0   0             -7361.0669     -7361.0669      51257.437    
        19   0             -7419.4427     -7419.4427      63388.239    
Loop time of 0.509629 on 1 procs for 19 steps with 70 atoms

99.6% CPU use with 1 MPI tasks x no OpenMP threads

Minimization stats:
  Stopping criterion = energy tolerance
  Energy initial, next-to-last, final = 
     -7361.06692106805  -7418.89122164785  -7419.44269115508
  Force two-norm initial, final = 919.17933 66.41685
  Force max component initial, final = 372.05397 22.698757
  Final line search alpha, max atom move = 0.00075937975 0.017236976
  Iterations, force evaluations = 19 43

MPI task timing breakdown:
Section |  min time  |  avg time  |  max time  |%varavg| %total
---------------------------------------------------------------
Pair    | 0.46582    | 0.46582    | 0.46582    |   0.0 | 91.40
Neigh   | 0          | 0          | 0          |   0.0 |  0.00
Comm    | 0.00034954 | 0.00034954 | 0.00034954 |   0.0 |  0.07
Output  | 0          | 0          | 0          |   0.0 |  0.00
Modify  | 0.043168   | 0.043168   | 0.043168   |   0.0 |  8.47
Other   |            | 0.0002942  |            |       |  0.06

Nlocal:             70 ave          70 max          70 min
Histogram: 1 0 0 0 0 0 0 0 0 0
Nghost:           2270 ave        2270 max        2270 min
Histogram: 1 0 0 0 0 0 0 0 0 0
Neighs:          23502 ave       23502 max       23502 min
Histogram: 1 0 0 0 0 0 0 0 0 0

Total # of neighbors = 23502
Ave neighs/atom = 335.74286
Neighbor list builds = 0
Dangerous builds = 0

# Save the minimized structure for the equilibration step.
write_data      structures/model_a_pristine_minimized.data nocoeff
System init for write_data ...

print "Model A minimization done -> structures/model_a_pristine_minimized.data"
Model A minimization done -> structures/model_a_pristine_minimized.data
Total wall time: 0:00:00
