thermo          100
thermo_style    custom step temp c_ctemp pe ke etotal press
dump            traj all custom ${DUMPEVERY} trajectories/${MODEL}_ramp_${STAGE}.lammpstrj id type xu yu zu
dump            traj all custom 100 trajectories/${MODEL}_ramp_${STAGE}.lammpstrj id type xu yu zu
dump            traj all custom 100 trajectories/model_a_ramp_${STAGE}.lammpstrj id type xu yu zu
dump            traj all custom 100 trajectories/model_a_ramp_1200K.lammpstrj id type xu yu zu
dump_modify     traj sort id

# CONTINUOUS HEAT-UP: NO velocity re-initialization. The carried-over state is
# brought to TSTAGE by the thermostat (the start structure is ~300 K from
# Phase 4/5 equilibration; each later stage continues from the previous final).
fix             nvt mobile nvt temp ${TSTAGE} ${TSTAGE} ${TDAMP}
fix             nvt mobile nvt temp 1200 ${TSTAGE} ${TDAMP}
fix             nvt mobile nvt temp 1200 1200 ${TDAMP}
fix             nvt mobile nvt temp 1200 1200 25
timestep        ${DT}
timestep        0.25
run             ${NSTEPS}
run             40000

CITE-CITE-CITE-CITE-CITE-CITE-CITE-CITE-CITE-CITE-CITE-CITE-CITE

Your simulation uses code contributions which should be cited:

- pair reaxff command: doi:10.1016/j.parco.2011.08.005

@Article{Aktulga12,
 author = {H. M. Aktulga and J. C. Fogarty and S. A. Pandit and A. Y. Grama},
 title = {Parallel Reactive Molecular Dynamics: {N}umerical Methods and Algorithmic Techniques},
 journal = {Parallel Computing},
 year =    2012,
 volume =  38,
 number =  {4--5},
 pages =   {245--259}
}

- fix qeq/reaxff command: doi:10.1016/j.parco.2011.08.005

@Article{Aktulga12,
 author = {H. M. Aktulga and J. C. Fogarty and S. A. Pandit and A. Y. Grama},
 title = {Parallel Reactive Molecular Dynamics: {N}umerical Methods and Algorithmic Techniques},
 journal = {Parallel Computing},
 year =    2012,
 volume =  38,
 pages =   {245--259}
}

CITE-CITE-CITE-CITE-CITE-CITE-CITE-CITE-CITE-CITE-CITE-CITE-CITE

WARNING: Fix recenter should come after all other integration fixes (src/fix_recenter.cpp:130)
Neighbor list info ...
  update: every = 1 steps, delay = 0 steps, check = yes
  max neighbors/atom: 2000, page size: 100000
  master list distance cutoff = 12
  ghost atom cutoff = 12
  binsize = 6, bins = 2 2 7
  2 neighbor lists, perpetual/occasional/extra = 2 0 0
  (1) pair reaxff, perpetual
      attributes: half, newton off, ghost
      pair build: half/bin/ghost/newtoff
      stencil: full/ghost/bin/3d
      bin: standard
  (2) fix qeq/reaxff, perpetual, copy from (1)
      attributes: half, newton off
      pair build: copy
      stencil: none
      bin: none
Per MPI rank memory allocation (min/avg/max) = 90.7 | 90.7 | 90.7 Mbytes
   Step          Temp         c_ctemp         PotEng         KinEng         TotEng         Press     
         0   799.62417      967.9661      -7687.4103      164.46342     -7522.9469     -8270.2571    
       100   830.85101      1005.767      -7664.7243      170.88602     -7493.8383     -12572.392    
       200   944.35064      1143.1613     -7647.0868      194.23016     -7452.8566     -14231.349    
       300   1059.678       1282.7681     -7654.6901      217.95022     -7436.7399     -6260.2042    
       400   1026.3701      1242.4481     -7659.0537      211.0996      -7447.9541     -6433.9567    
       500   925.91868      1120.8489     -7668.4323      190.43915     -7477.9931     -1361.7105    
       600   948.06968      1147.6633     -7680.2585      194.99508     -7485.2634      8263.6618    
       700   1060.5206      1283.7881     -7662.7654      218.12352     -7444.6419     -3444.7961    
       800   1024.2979      1239.9396     -7621.8752      210.67339     -7411.2018      13193.585    
       900   1122.6631      1359.0132     -7644.042       230.90474     -7413.1373      11631.831    
      1000   1017.7543      1232.0184     -7677.6419      209.32753     -7468.3144     -7512.7295    
      1100   820.17389      992.84208     -7657.8773      168.69        -7489.1873     -12803.631    
      1200   958.42101      1160.1939     -7660.0112      197.1241      -7462.8871     -4237.4833    
      1300   1041.8196      1261.15       -7644.9067      214.27717     -7430.6295     -6289.3664    
      1400   985.63866      1193.1415     -7631.1478      202.72211     -7428.4257     -20011.244    
      1500   968.19232      1172.0223     -7639.0754      199.13382     -7439.9416     -16994.764    
      1600   908.44416      1099.6956     -7639.2103      186.84506     -7452.3652     -12725.291    
      1700   867.39905      1050.0094     -7630.7339      178.40307     -7452.3309     -18910.968    
      1800   1118.3462      1353.7875     -7646.7678      230.01685     -7416.751      -8576.432     
      1900   977.88624      1183.757      -7601.42        201.12763     -7400.2924     -10693.425    
      2000   1101.4009      1333.2748     -7612.364       226.53162     -7385.8323     -21562.69     
      2100   909.4291       1100.8879     -7618.0595      187.04764     -7431.0119     -6364.5331    
      2200   947.52041      1146.9984     -7657.0587      194.88211     -7462.1766     -2780.2548    
      2300   1044.1593      1263.9823     -7668.9089      214.75839     -7454.1505     -13291.541    
      2400   1008.3918      1220.6848     -7652.458       207.40188     -7445.0561     -7597.7811    
      2500   1143.174       1383.8422     -7661.3651      235.12334     -7426.2418     -4291.0732    
      2600   1027.4072      1243.7035     -7652.1746      211.3129      -7440.8617      4900.0477    
      2700   930.40858      1126.2841     -7674.5158      191.36262     -7483.1532      2616.7304    
      2800   873.29086      1057.1416     -7674.8016      179.61488     -7495.1867      4406.1488    
      2900   1059.5634      1282.6293     -7688.5026      217.92664     -7470.576       8072.703     
      3000   1241.0621      1502.3383     -7679.5963      255.25655     -7424.3397     -1211.2474    
      3100   1134.851       1373.767      -7644.8016      233.41149     -7411.3902     -1130.4261    
      3200   938.37215      1135.9242     -7669.6408      193.00053     -7476.6402     -13339.499    
      3300   873.74991      1057.6973     -7674.7456      179.70929     -7495.0363     -4383.3247    
      3400   958.66764      1160.4924     -7673.7063      197.17482     -7476.5314     -5521.6498    
      3500   1098.63        1329.9206     -7668.3531      225.96172     -7442.3914     -7067.2267    
      3600   935.40902      1132.3372     -7631.2956      192.39109     -7438.9045     -11899.681    
      3700   1038.5561      1257.1995     -7641.2668      213.60596     -7427.6609     -19397.758    
      3800   1226.0202      1484.1297     -7666.1587      252.16279     -7413.996      -2610.1405    
      3900   990.69871      1199.2669     -7666.418       203.76284     -7462.6552     -9957.2728    
      4000   811.33661      982.14432     -7649.6541      166.87238     -7482.7817     -26835.853    
      4100   1024.9643      1240.7462     -7663.4958      210.81044     -7452.6853     -6761.219     
      4200   1032.666       1250.0693     -7645.0152      212.39449     -7432.6207      732.32147    
      4300   927.89181      1123.2375     -7622.8979      190.84498     -7432.0529     -5800.6428    
      4400   1060.3129      1283.5367     -7619.4555      218.08081     -7401.3747      6583.1518    
      4500   1215.9889      1471.9865     -7595.1222      250.0996      -7345.0226      2552.1501    
      4600   1122.2941      1358.5665     -7607.5752      230.82883     -7376.7464      5066.9645    
      4700   926.48551      1121.5351     -7603.8171      190.55574     -7413.2613      2836.1838    
      4800   938.11864      1135.6173     -7634.6861      192.94839     -7441.7377     -3720.121     
      4900   1007.1583      1219.1916     -7657.7843      207.14818     -7450.6361      4572.6121    
      5000   947.03161      1146.4067     -7629.6114      194.78157     -7434.8299      4705.8203    
      5100   1150.6465      1392.8879     -7609.4174      236.66025     -7372.7571     -4729.2486    
      5200   1155.2789      1398.4955     -7621.0397      237.61301     -7383.4266     -10890.217    
      5300   1076.5195      1303.1552     -7646.2404      221.41411     -7424.8263     -16738.131    
      5400   800.80988      969.40144     -7619.8158      164.70729     -7455.1085     -17095.364    
      5500   1020.8987      1235.8247     -7650.7468      209.97424     -7440.7725     -18959.517    
      5600   975.43063      1180.7845     -7636.0489      200.62257     -7435.4264     -14241.605    
      5700   1006.4596      1218.3459     -7654.7856      207.00448     -7447.7811     -14321.492    
      5800   962.10704      1164.6559     -7659.1067      197.88222     -7461.2244     -19673.139    
      5900   891.42268      1079.0906     -7636.3825      183.34416     -7453.0384     -3941.953     
      6000   1189.5873      1440.0268     -7664.1057      244.66943     -7419.4362     -10761.221    
      6100   946.24747      1145.4575     -7645.7742      194.62029     -7451.1539      5030.5199    
      6200   846.74667      1025.0091     -7650.592       174.15538     -7476.4366     -9384.9885    
      6300   1026.702       1242.8498     -7666.4947      211.16785     -7455.3269     -5896.6283    
      6400   1189.3883      1439.7858     -7636.4354      244.6285      -7391.8069      12255.346    
      6500   1279.2065      1548.5131     -7599.7773      263.10193     -7336.6754      14346.003    
      6600   985.99603      1193.5741     -7610.9025      202.79561     -7408.1069      7410.3158    
      6700   1030.3076      1247.2145     -7670.4254      211.90945     -7458.5159      1346.7166    
      6800   954.2277       1155.1177     -7675.677       196.26164     -7479.4154      5686.0068    
      6900   803.39154      972.52661     -7640.9329      165.23827     -7475.6947     -4601.7805    
      7000   1086.3865      1315.0994     -7651.9842      223.44351     -7428.5407     -1084.3722    
      7100   952.38238      1152.8839     -7604.805       195.8821      -7408.9229     -5882.4165    
      7200   1008.8562      1221.247      -7597.842       207.4974      -7390.3446     -929.31177    
      7300   927.41021      1122.6545     -7574.7861      190.74592     -7384.0401     -12034.106    
      7400   1051.9986      1273.472      -7639.2873      216.37075     -7422.9166     -12675.127    
      7500   915.9342       1108.7625     -7639.2019      188.38558     -7450.8163     -7850.3133    
      7600   990.0566       1198.4896     -7642.0021      203.63078     -7438.3713     -2069.1935    
      7700   962.59437      1165.2458     -7626.2564      197.98246     -7428.274       1118.3684    
      7800   1001.0797      1211.8333     -7614.001       205.89796     -7408.1031      5369.0808    
      7900   1142.4743      1382.9952     -7603.7195      234.97942     -7368.7401     -3851.7011    
      8000   920.84832      1114.7111     -7580.1306      189.3963      -7390.7343     -118.73506    
      8100   1083.4578      1311.5542     -7649.9761      222.84116     -7427.135       7049.2237    
      8200   1123.5654      1360.1055     -7676.9404      231.09032     -7445.8501      1332.4934    
      8300   811.39144      982.21069     -7636.6958      166.88366     -7469.8121     -5452.1963    
      8400   976.6935       1182.3132     -7667.1385      200.88231     -7466.2562      16707.212    
      8500   1053.3166      1275.0675     -7658.6318      216.64183     -7441.9899      5468.6713    
      8600   1183.4789      1432.6323     -7620.0769      243.41307     -7376.6638      3261.0726    
      8700   954.50858      1155.4578     -7598.4653      196.31941     -7402.1459     -10896.828    
      8800   1044.6168      1264.5361     -7652.3676      214.8525      -7437.5151     -3068.9515    
      8900   1093.6202      1323.8561     -7687.9038      224.93132     -7462.9725     -4315.6402    
      9000   773.53336      936.38249     -7634.3589      159.09716     -7475.2618     -6112.9128    
      9100   973.86905      1178.8941     -7643.3722      200.30139     -7443.0708     -12547.68     
      9200   1084.6008      1312.9378     -7660.0652      223.07623     -7436.989       8797.1011    
      9300   1010.114       1222.7696     -7646.6186      207.7561      -7438.8625     -4231.0265    
      9400   1213.9038      1469.4626     -7680.9741      249.67076     -7431.3033     -707.33748    
      9500   923.52047      1117.9458     -7675.438       189.9459      -7485.4921      9551.9112    
      9600   890.06934      1077.4524     -7687.1073      183.06581     -7504.0415      7917.9899    
      9700   820.97031      993.80616     -7646.7232      168.8538      -7477.8694     -2675.8084    
      9800   1052.3745      1273.927      -7656.6394      216.44807     -7440.1913      6189.8234    
      9900   980.57064      1187.0066     -7628.4799      201.67974     -7426.8002      2378.3853    
     10000   1038.4433      1257.063      -7645.4541      213.58276     -7431.8713     -8790.0782    
     10100   862.28249      1043.8156     -7653.4418      177.35072     -7476.0911     -9401.8686    
     10200   791.15523      957.71422     -7642.4439      162.72156     -7479.7224     -2706.1308    
     10300   1202.1131      1455.1896     -7660.9845      247.24569     -7413.7388     -7978.0123    
     10400   914.52327      1107.0545     -7614.0556      188.09539     -7425.9602     -2827.3817    
     10500   948.65112      1148.3671     -7622.2435      195.11467     -7427.1289     -17279.079    
     10600   1003.8268      1215.1588     -7628.7591      206.46298     -7422.2961     -11261.885    
     10700   1039.2079      1257.9885     -7667.0867      213.74002     -7453.3467     -8567.9331    
     10800   832.9267       1008.2797     -7656.0754      171.31294     -7484.7625     -16027.542    
     10900   994.673        1204.0778     -7662.3282      204.58026     -7457.748      -16011.254    
     11000   994.79067      1204.2203     -7641.3615      204.60446     -7436.757      -17270.443    
     11100   1038.3067      1256.8975     -7645.8176      213.55465     -7432.2629     -163.52298    
     11200   969.7095       1173.8589     -7648.7359      199.44587     -7449.29        5192.7036    
     11300   930.70492      1126.6428     -7653.4322      191.42357     -7462.0087      8933.3687    
     11400   1156.5035      1399.9779     -7648.4273      237.86488     -7410.5624     -7231.5562    
     11500   1057.8324      1280.534      -7622.1216      217.57063     -7404.551      -1754.6375    
     11600   951.21453      1151.4702     -7637.1918      195.6419      -7441.5499     -2112.8995    
     11700   1134.5935      1373.4553     -7677.462       233.35854     -7444.1035     -5827.4353    
     11800   862.77846      1044.416      -7641.9068      177.45273     -7464.4541     -4085.4215    
     11900   872.11259      1055.7152     -7660.6541      179.37254     -7481.2816     -5399.007     
     12000   937.59583      1134.9844     -7692.8142      192.84086     -7499.9733     -1730.6967    
     12100   871.62788      1055.1285     -7666.5191      179.27284     -7487.2463     -8043.3097    
     12200   985.67234      1193.1823     -7639.5719      202.72904     -7436.8429     -9424.1843    
     12300   1124.2949      1360.9885     -7648.3917      231.24035     -7417.1513     -1027.6394    
     12400   951.80682      1152.1872     -7629.9432      195.76372     -7434.1795     -20170.761    
     12500   911.06566      1102.869      -7650.0483      187.38424     -7462.664      -10144.387    
     12600   865.31225      1047.4832     -7670.3166      177.97387     -7492.3427     -13319.78     
     12700   796.16922      963.78379     -7674.3648      163.75282     -7510.612      -9055.0613    
     12800   988.12302      1196.1489     -7666.5098      203.23309     -7463.2767     -11970.465    
     12900   967.68366      1171.4065     -7628.883       199.0292      -7429.8538     -4731.1459    
     13000   997.51733      1207.521      -7608.7476      205.16527     -7403.5823      8067.4078    
     13100   1041.4524      1260.7055     -7602.6443      214.20165     -7388.4427      10492.569    
     13200   1130.4236      1368.4075     -7642.7404      232.50089     -7410.2395     -7524.7472    
     13300   946.42022      1145.6666     -7659.2083      194.65583     -7464.5524     -8155.488     
     13400   827.82299      1002.1015     -7649.0289      170.26323     -7478.7657     -19055.951    
     13500   1010.9904      1223.8305     -7671.344       207.93635     -7463.4076     -828.41399    
     13600   1036.2082      1254.3572     -7639.8512      213.12304     -7426.7281     -12352.485    
     13700   1125.6272      1362.6014     -7599.9966      231.51438     -7368.4822     -14467.366    
     13800   1066.1142      1290.5593     -7603.691       219.27399     -7384.417       1668.4721    
     13900   1093.8714      1324.1601     -7648.0442      224.98298     -7423.0612     -5922.5481    
     14000   1003.2594      1214.472      -7665.8359      206.34628     -7459.4897     -13899.362    
     14100   944.62502      1143.4934     -7662.773       194.28659     -7468.4864     -15334.085    
     14200   909.63116      1101.1325     -7643.9786      187.0892      -7456.8894     -6262.7477    
     14300   1170.524       1416.9501     -7647.973       240.74856     -7407.2245     -6192.4502    
     14400   1181.1617      1429.8273     -7650.0991      242.93648     -7407.1626     -14334.601    
     14500   780.15235      944.39495     -7618.9558      160.45853     -7458.4973     -18021.2      
     14600   989.71628      1198.0776     -7669.6718      203.56078     -7466.111      -4195.111     
     14700   960.59961      1162.8311     -7670.0072      197.57218     -7472.435       2635.3199    
     14800   834.77923      1010.5222     -7641.8722      171.69396     -7470.1782     -8240.1687    
     14900   1070.3364      1295.6704     -7640.2549      220.14239     -7420.1125      3822.1812    
     15000   1017.2226      1231.3747     -7631.5599      209.21816     -7422.3417     -759.7067     
     15100   941.01909      1139.1284     -7642.0364      193.54494     -7448.4914      2199.3954    
     15200   869.38888      1052.4181     -7663.4136      178.81234     -7484.6013     -2072.9689    
     15300   839.86721      1016.6814     -7706.2883      172.74044     -7533.5479     -3785.6021    
     15400   837.82521      1014.2095     -7708.4249      172.32045     -7536.1045     -15018.463    
     15500   722.72735      874.88048     -7658.0681      148.64759     -7509.4205     -3576.306     
     15600   1023.7341      1239.2571     -7681.1414      210.55743     -7470.584      -12954.121    
     15700   1041.4294      1260.6777     -7651.6878      214.19693     -7437.4909     -9366.7772    
     15800   969.7284       1173.8818     -7616.6957      199.44976     -7417.2459     -7749.6595    
     15900   1139.7016      1379.6387     -7630.8801      234.40914     -7396.471      -5359.5577    
     16000   983.84141      1190.9659     -7608.4101      202.35246     -7406.0577     -4580.9444    
     16100   965.14631      1168.335      -7649.2357      198.50733     -7450.7283     -16485.51     
     16200   875.49236      1059.8065     -7647.4516      180.06767     -7467.384      -22178.567    
     16300   1026.8904      1243.0779     -7654.1718      211.20661     -7442.9652     -7386.0042    
     16400   1072.5802      1298.3865     -7618.8847      220.60388     -7398.2808     -3348.7325    
     16500   1217.8346      1474.2209     -7602.7563      250.47922     -7352.2771     -1793.0485    
     16600   1084.5735      1312.9047     -7603.9882      223.07062     -7380.9176      5114.8131    
     16700   1086.2966      1314.9906     -7646.49        223.42503     -7423.065      -13926.964    
     16800   1138.7345      1378.468      -7684.4228      234.21023     -7450.2126      1738.286     
     16900   805.74098      975.37067     -7641.8527      165.7215      -7476.1312      207.2935     
     17000   996.63195      1206.4492     -7657.2964      204.98317     -7452.3132     -3567.3877    
     17100   1094.0935      1324.429      -7633.2063      225.02867     -7408.1776      1468.0008    
     17200   1056.3503      1278.7398     -7627.0593      217.26578     -7409.7935      4515.5334    
     17300   910.62526      1102.3358     -7613.0633      187.29366     -7425.7696     -11814.106    
     17400   1042.1176      1261.5107     -7665.3457      214.33846     -7451.0072      4604.5593    
     17500   963.87898      1166.8009     -7682.7422      198.24667     -7484.4956     -17060.888    
     17600   903.15243      1093.2898     -7673.2502      185.75668     -7487.4936     -13428.956    
     17700   970.10699      1174.34       -7669.0687      199.52762     -7469.5411     -16677.809    
     17800   939.84039      1137.7015     -7650.6089      193.30251     -7457.3064      7283.6996    
     17900   1158.5525      1402.4583     -7681.239       238.28633     -7442.9527     -15488.981    
     18000   956.43257      1157.7868     -7646.1047      196.71512     -7449.3895     -17025.938    
     18100   844.61475      1022.4284     -7642.9503      173.71689     -7469.2334     -27064.335    
     18200   875.98509      1060.403      -7688.3976      180.16902     -7508.2286     -8949.6621    
     18300   873.50688      1057.4031     -7677.8912      179.65931     -7498.2319     -13406.136    
     18400   987.32468      1195.1825     -7660.3658      203.06889     -7457.297      -5645.7998    
     18500   976.25076      1181.7772     -7648.4819      200.79125     -7447.6907     -4939.4903    
     18600   997.94367      1208.0371     -7645.7457      205.25296     -7440.4928     -3044.2815    
     18700   1022.9038      1238.2519     -7655.6272      210.38665     -7445.2405     -8452.4442    
     18800   892.86716      1080.8392     -7647.4845      183.64125     -7463.8432     -6887.7621    
     18900   965.32763      1168.5545     -7669.7873      198.54462     -7471.2427     -10428.715    
     19000   908.51475      1099.781      -7663.37        186.85958     -7476.5104     -17805.618    
     19100   937.8313       1135.2695     -7651.0913      192.88929     -7458.202      -15352.112    
     19200   1058.2988      1281.0986     -7627.5746      217.66655     -7409.9081      3060.863     
     19300   1160.682       1405.0362     -7642.0036      238.72432     -7403.2792     -4463.2688    
     19400   974.46339      1179.6136     -7635.746       200.42363     -7435.3224     -4324.1218    
     19500   932.68618      1129.0412     -7640.4798      191.83106     -7448.6487      270.56606    
     19600   915.62533      1108.3886     -7640.298       188.32206     -7451.9759     -8945.6577    
     19700   1144.4104      1385.339      -7668.3456      235.37764     -7432.968      -4680.6395    
     19800   1037.3961      1255.7953     -7648.0264      213.36737     -7434.659      -17187.44     
     19900   1040.1424      1259.1198     -7671.9698      213.93222     -7458.0376     -14470.127    
     20000   828.09234      1002.4276     -7682.5679      170.31863     -7512.2493     -12857.384    
     20100   795.58344      963.0747      -7666.5682      163.63234     -7502.9358     -2028.2838    
     20200   856.94702      1037.3569     -7646.4652      176.25334     -7470.2118     -1844.1933    
     20300   1198.1504      1450.3926     -7692.9536      246.43065     -7446.523       6061.9321    
     20400   935.3427       1132.257      -7653.3348      192.37745     -7460.9574     -1224.3461    
     20500   868.81601      1051.7246     -7639.9965      178.69451     -7461.302      -2935.6664    
     20600   1102.527       1334.6379     -7637.609       226.76322     -7410.8458     -8968.4752    
     20700   1204.0526      1457.5373     -7640.7027      247.64459     -7393.0581     -1243.5171    
     20800   1015.8287      1229.6874     -7644.0172      208.93148     -7435.0857     -519.17462    
     20900   869.80953      1052.9273     -7637.1719      178.89885     -7458.273      -10343.139    
     21000   985.2781       1192.7051     -7652.4109      202.64795     -7449.7629     -6174.6918    
     21100   943.14042      1141.6963     -7625.3167      193.98125     -7431.3354     -13318.896    
     21200   1218.8594      1475.4614     -7660.1684      250.69        -7409.4784     -7260.6041    
     21300   979.73867      1185.9994     -7632.773       201.50863     -7431.2643     -18808.854    
     21400   1082.5399      1310.443      -7653.5786      222.65236     -7430.9262     -6813.7946    
     21500   979.99562      1186.3105     -7630.7365      201.56147     -7429.1751      6136.2319    
     21600   1127.3322      1364.6653     -7634.8915      231.86506     -7403.0264     -7945.9871    
     21700   1127.7997      1365.2312     -7642.2576      231.96121     -7410.2964     -12404.839    
     21800   927.76109      1123.0792     -7642.7684      190.81809     -7451.9503     -805.216      
     21900   841.35647      1018.4842     -7630.8287      173.04674     -7457.7819     -15585.255    
     22000   1028.2803      1244.7604     -7620.267       211.49247     -7408.7745     -19376.689    
     22100   1168.7912      1414.8525     -7619.9281      240.39217     -7379.536      -2381.3132    
     22200   1060.6952      1283.9995     -7623.1372      218.15944     -7404.9778     -13807.977    
     22300   1081.3517      1309.0046     -7649.397       222.40797     -7426.9891     -17140.56     
     22400   975.11607      1180.4037     -7648.6338      200.55787     -7448.0759     -7898.4097    
     22500   894.56355      1082.8927     -7660.3962      183.99016     -7476.4061     -13669.475    
     22600   861.30825      1042.6363     -7671.4357      177.15034     -7494.2854     -8934.1327    
     22700   958.14585      1159.8608     -7674.9435      197.0675      -7477.876      -6611.1381    
     22800   1045.9704      1266.1747     -7648.1092      215.1309      -7432.9783     -7728.298     
     22900   1041.6196      1260.9079     -7628.7623      214.23603     -7414.5263     -10376.695    
     23000   1014.2357      1227.759      -7619.1069      208.60383     -7410.5031     -1289.7413    
     23100   1035.445       1253.4334     -7684.5357      212.96607     -7471.5696     -9752.1512    
     23200   930.14551      1125.9656     -7687.0328      191.30851     -7495.7243     -22735.864    
     23300   1029.0656      1245.711      -7684.4998      211.65399     -7472.8458     -9784.3796    
     23400   927.19965      1122.3996     -7637.311       190.70262     -7446.6084     -10832.463    
     23500   1041.7459      1261.0608     -7646.2723      214.26202     -7432.0103      11101.59     
     23600   1004.6843      1216.1968     -7657.4846      206.63934     -7450.8453     -9868.0898    
     23700   876.91728      1061.5314     -7668.483       180.36074     -7488.1222      13404.845    
     23800   797.79498      965.75182     -7656.0593      164.08719     -7491.9721     -2695.8429    
     23900   964.87535      1168.007      -7644.758       198.4516      -7446.3064     -245.96737    
     24000   1064.528       1288.6392     -7642.2923      218.94775     -7423.3445     -15872.752    
     24100   1112.9267      1347.2271     -7653.1201      228.9022      -7424.2179      419.49504    
     24200   927.56735      1122.8447     -7631.3113      190.77824     -7440.533      -9931.791     
     24300   827.51951      1001.7341     -7655.549       170.20081     -7485.3482     -13818.763    
     24400   821.06824      993.92471     -7674.2202      168.87394     -7505.3463     -21329.354    
     24500   841.43789      1018.5827     -7649.8907      173.06349     -7476.8272     -14389.145    
     24600   959.20573      1161.1438     -7636.981       197.2855      -7439.6955     -13326.068    
     24700   1035.1649      1253.0943     -7628.9645      212.90846     -7416.056      -9506.5365    
     24800   932.30069      1128.5745     -7620.4178      191.75178     -7428.666      -11751.974    
     24900   890.59631      1078.0903     -7650.5678      183.17419     -7467.3936     -1900.1181    
     25000   1075.4175      1301.8211     -7694.7623      221.18745     -7473.5749      546.85015    
     25100   876.38791      1060.8906     -7656.6351      180.25187     -7476.3832      744.25995    
     25200   1007.4219      1219.5107     -7646.1811      207.20239     -7438.9787      7103.1818    
     25300   1019.1757      1233.739      -7611.7828      209.61987     -7402.1629     -6346.4621    
     25400   1077.5236      1304.3707     -7636.8867      221.62063     -7415.266      -1295.9117    
     25500   1014.4256      1227.9889     -7666.9213      208.6429      -7458.2784      5686.5364    
     25600   967.76852      1171.5093     -7671.5197      199.04666     -7472.473      -2896.6696    
     25700   779.73098      943.88487     -7630.6268      160.37187     -7470.255      -9132.2363    
     25800   1094.5073      1324.9299     -7653.7638      225.11377     -7428.65       -15758.768    
     25900   1044.3349      1264.1949     -7637.1103      214.79451     -7422.3158     -19949.228    
     26000   1021.9281      1237.0709     -7655.9897      210.18598     -7445.8037     -4903.4594    
     26100   871.89884      1055.4565     -7637.3359      179.32857     -7458.0073     -21640.142    
     26200   1121.7388      1357.8943     -7674.0485      230.71462     -7443.3339     -10140.996    
     26300   938.62094      1136.2254     -7644.8593      193.0517      -7451.8076     -5876.7625    
     26400   986.38032      1194.0393     -7665.4589      202.87465     -7462.5842     -10591.961    
     26500   1035.3334      1253.2984     -7689.9624      212.94313     -7477.0192     -13846.836    
     26600   975.30086      1180.6274     -7680.2299      200.59588     -7479.634      -14989.845    
     26700   933.89169      1130.5005     -7643.0135      192.07901     -7450.9345      2550.7397    
     26800   1071.462       1297.033      -7632.2666      220.37391     -7411.8927      6290.3283    
     26900   1035.3556      1253.3252     -7618.4839      212.94768     -7405.5362      14051.297    
     27000   861.16303      1042.4605     -7622.6619      177.12048     -7445.5414     -8764.5652    
     27100   1031.9154      1249.1607     -7694.9873      212.24012     -7482.7471     -4497.8826    
     27200   809.5182       979.94309     -7657.0518      166.49838     -7490.5534     -5679.3248    
     27300   974.6979       1179.8975     -7649.363       200.47186     -7448.8912      14585.994    
     27400   1048.7619      1269.5538     -7640.278       215.70503     -7424.573       3069.0666    
     27500   1083.5608      1311.6788     -7647.9163      222.86233     -7425.054      -5734.7176    
     27600   931.73502      1127.8898     -7647.3326      191.63543     -7455.6971     -16311.005    
     27700   925.12848      1119.8924     -7678.0579      190.27663     -7487.7813     -11310.239    
     27800   869.66057      1052.747      -7654.9456      178.86821     -7476.0774     -26591.612    
     27900   966.47419      1169.9424     -7651.8857      198.78044     -7453.1052     -20519.495    
     28000   978.40088      1184.38       -7646.5108      201.23348     -7445.2773     -22148.591    
     28100   911.84409      1103.8113     -7630.6508      187.54435     -7443.1065     -4039.9393    
     28200   1080.4398      1307.9008     -7641.9579      222.22041     -7419.7375     -23877.971    
     28300   1140.1093      1380.1323     -7635.2905      234.49299     -7400.7975     -12392.185    
     28400   1023.1303      1238.5261     -7648.37        210.43324     -7437.9368     -9580.3109    
     28500   937.64499      1135.0439     -7673.991       192.85097     -7481.14       -4404.4678    
     28600   893.84901      1082.0278     -7662.879       183.84319     -7479.0358     -9901.8503    
     28700   995.88063      1205.5397     -7652.7971      204.82864     -7447.9684      5243.0817    
     28800   1164.563       1409.7342     -7661.4763      239.52254     -7421.9537     -2121.9605    
     28900   900.55766      1090.1487     -7654.1499      185.223       -7468.9269     -2433.0921    
     29000   860.54437      1041.7116     -7669.8089      176.99323     -7492.8156     -515.68792    
     29100   973.51505      1178.4656     -7670.0463      200.22858     -7469.8178     -3774.7083    
     29200   1032.6152      1250.0079     -7650.1817      212.38406     -7437.7977      1729.4917    
     29300   1102.7939      1334.961      -7635.958       226.81812     -7409.1398     -16778.876    
     29400   1239.4632      1500.4029     -7668.0933      254.92771     -7413.1656     -11735.992    
     29500   876.28629      1060.7676     -7664.7895      180.23097     -7484.5585     -1894.4084    
     29600   892.21009      1080.0438     -7655.3411      183.50611     -7471.835      -9831.5987    
     29700   1032.5595      1249.9405     -7641.5839      212.37261     -7429.2113     -2502.0504    
     29800   1061.2583      1284.6811     -7623.4589      218.27524     -7405.1836     -10217.682    
     29900   1050.1693      1271.2575     -7623.17        215.9945      -7407.1754     -9728.2685    
     30000   979.03367      1185.146      -7654.7452      201.36362     -7453.3816     -10567.825    
     30100   915.50486      1108.2427     -7669.9435      188.29728     -7481.6462     -10811.771    
     30200   898.32529      1087.4464     -7652.5984      184.76386     -7467.8345     -9361.9181    
     30300   947.67619      1147.187      -7648.5849      194.91415     -7453.6707     -12092.995    
     30400   1103.7983      1336.1769     -7654.0646      227.02471     -7427.0399     -1384.0277    
     30500   1062.9548      1286.7348     -7639.9357      218.62418     -7421.3116      4605.7903    
     30600   1069.4961      1294.6532     -7675.196       219.96957     -7455.2264     -482.21134    
     30700   767.63685      929.24461     -7666.3975      157.8844      -7508.5131      4843.3479    
     30800   951.28198      1151.5519     -7688.008       195.65577     -7492.3522     -5645.2597    
     30900   962.54193      1165.1823     -7666.1608      197.97167     -7468.1891     -16303.875    
     31000   950.65679      1150.7951     -7642.8751      195.52719     -7447.3479      9475.3555    
     31100   1083.8769      1312.0615     -7646.1279      222.92736     -7423.2005     -10751.63     
     31200   1139.6622      1379.591      -7642.9521      234.40103     -7408.5511     -17858.606    
     31300   900.69977      1090.3208     -7625.9097      185.25223     -7440.6575     -19363.416    
     31400   974.90502      1180.1482     -7666.1394      200.51446     -7465.6249     -11419.119    
     31500   885.54358      1071.9738     -7667.231       182.13497     -7485.096      -22304.072    
     31600   885.02739      1071.3489     -7683.7492      182.0288      -7501.7204     -18152.051    
     31700   857.82664      1038.4217     -7671.6855      176.43426     -7495.2512     -13320.01     
     31800   990.31358      1198.8007     -7652.1485      203.68363     -7448.4649     -10739.021    
     31900   1077.1278      1303.8915     -7642.0419      221.53922     -7420.5027     -6213.0045    
     32000   970.77643      1175.1504     -7632.9079      199.66531     -7433.2425      27.605392    
     32100   1062.2765      1285.9136     -7679.6386      218.48467     -7461.1539      2686.4762    
     32200   828.14517      1002.4915     -7658.1326      170.3295      -7487.8031     -10679.688    
     32300   888.22214      1075.2163     -7651.8029      182.68588     -7469.117      -1748.1732    
     32400   905.421        1096.0359     -7623.446       186.22327     -7437.2227     -387.51123    
     32500   1195.2066      1446.829      -7658.2461      245.82518     -7412.421      -3079.5742    
     32600   910.69049      1102.4148     -7627.5786      187.30708     -7440.2715     -6829.316     
     32700   970.32675      1174.6061     -7659.9502      199.57282     -7460.3773      6821.9052    
     32800   817.60872      989.73687     -7671.4629      168.1624      -7503.3005     -12125.559    
     32900   908.29275      1099.5123     -7703.2972      186.81392     -7516.4833     -12471.327    
     33000   853.43733      1033.1083     -7650.6721      175.53149     -7475.1406     -14730.526    
     33100   957.04198      1158.5245     -7634.2432      196.84046     -7437.4027     -10140.168    
     33200   999.83937      1210.3319     -7619.773       205.64286     -7414.1302     -20488.163    
     33300   1082.1523      1309.9739     -7624.4279      222.57265     -7401.8553     -28549.028    
     33400   945.67874      1144.769      -7620.3964      194.50332     -7425.8931     -10675.076    
     33500   1030.0359      1246.8856     -7672.237       211.85356     -7460.3835     -10344.658    
     33600   749.79063      907.64129     -7658.0027      154.21386     -7503.7889     -30188.871    
     33700   1020.4691      1235.3047     -7695.1025      209.88589     -7485.2166     -12108.744    
     33800   949.91151      1149.8929     -7661.6122      195.3739      -7466.2383     -2437.3145    
     33900   836.20999      1012.2542     -7629.9721      171.98824     -7457.9839     -11580.459    
     34000   1264.3377      1530.5141     -7689.1722      260.04379     -7429.1284     -12567.725    
     34100   1050.3683      1271.4985     -7653.2415      216.03544     -7437.2061      5462.1924    
     34200   954.73589      1155.7329     -7688.0851      196.36616     -7491.719       12287.619    
     34300   835.40208      1011.2762     -7694.0219      171.82207     -7522.1998      7843.0887    
     34400   921.74718      1115.7992     -7673.9356      189.58117     -7484.3544      4444.6213    
     34500   885.95883      1072.4765     -7634.066       182.22037     -7451.8457     -11757.616    
     34600   1074.6793      1300.9275     -7645.9459      221.03562     -7424.9103      903.35457    
     34700   1107.4896      1340.6454     -7653.5407      227.78392     -7425.7567     -5026.5214    
     34800   937.59579      1134.9844     -7676.5119      192.84085     -7483.671      -7536.1926    
     34900   823.55194      996.93129     -7663.1083      169.38478     -7493.7236     -23573.335    
     35000   908.81463      1100.144      -7658.187       186.92126     -7471.2657     -11901.34     
     35100   946.39216      1145.6326     -7629.6095      194.65005     -7434.9594     -17246.273    
     35200   1135.4391      1374.4789     -7651.0206      233.53245     -7417.4881     -13647.14     
     35300   1064.7181      1288.8693     -7656.3304      218.98685     -7437.3435     -14530.153    
     35400   896.60353      1085.3622     -7648.4731      184.40973     -7464.0634     -6773.7791    
     35500   942.52778      1140.9547     -7655.7324      193.85524     -7461.8772     -4379.327     
     35600   1054.1934      1276.1288     -7663.4756      216.82216     -7446.6534      9289.2576    
     35700   905.8517       1096.5573     -7631.6277      186.31186     -7445.3158     -7324.4626    
     35800   1074.2474      1300.4047     -7654.9235      220.94679     -7433.9767      7305.2056    
     35900   975.49348      1180.8605     -7633.9765      200.63549     -7433.341       8831.9647    
     36000   1039.1036      1257.8623     -7635.4014      213.71856     -7421.6828     -8978.3221    
     36100   1043.2257      1262.8522     -7632.9273      214.56638     -7418.361      -8669.2601    
     36200   918.12672      1111.4166     -7620.3828      188.83653     -7431.5462     -2505.3954    
     36300   1064.3011      1288.3645     -7659.8004      218.90108     -7440.8993     -8975.8269    
     36400   937.41846      1134.7697     -7669.0976      192.80438     -7476.2932     -1220.2862    
     36500   878.00222      1062.8448     -7666.5131      180.58389     -7485.9292     -5247.9152    
     36600   1024.9716      1240.7551     -7646.8451      210.81196     -7436.0332      5025.035     
     36700   1013.3529      1226.6903     -7622.7718      208.42226     -7414.3495      1868.1635    
     36800   989.73535      1198.1007     -7627.4231      203.5647      -7423.8584      1034.7157    
     36900   1019.8827      1234.5949     -7640.5215      209.76529     -7430.7562      976.14695    
     37000   977.04506      1182.7388     -7637.6369      200.95461     -7436.6823     -9747.0775    
     37100   834.31567      1009.9611     -7628.7685      171.59862     -7457.1698     -10212.179    
     37200   941.29751      1139.4654     -7654.6762      193.60221     -7461.074       7521.3379    
     37300   1051.5402      1272.9171     -7657.6287      216.27647     -7441.3522     -9257.4552    
     37400   1054.748       1276.8002     -7647.1538      216.93624     -7430.2176      12386.323    
     37500   932.48393      1128.7963     -7645.1429      191.78946     -7453.3534      9605.5997    
     37600   833.80253      1009.3399     -7657.4795      171.49308     -7485.9864      4866.4605    
     37700   902.05882      1091.9659     -7658.4934      185.53175     -7472.9616     -8429.9357    
     37800   996.72053      1206.5564     -7625.0474      205.00139     -7420.046      -266.41662    
     37900   1176.3329      1423.9819     -7656.2425      241.94332     -7414.2992     -704.68065    
     38000   995.20878      1204.7264     -7643.4702      204.69046     -7438.7797     -10448.092    
     38100   833.57363      1009.0628     -7628.7284      171.446       -7457.2824     -13781.138    
     38200   844.69015      1022.5197     -7627.7385      173.7324      -7454.0061     -6189.3654    
     38300   1222.5388      1479.9153     -7659.9406      251.44675     -7408.4938     -13096.111    
     38400   1178.4474      1426.5416     -7649.5157      242.37823     -7407.1375     -13771.758    
     38500   663.88071      803.64507     -7585.0621      136.54426     -7448.5179     -15444.042    
     38600   1006.5257      1218.4258     -7640.8227      207.01807     -7433.8046     -9759.2723    
     38700   1139.5532      1379.4592     -7640.553       234.37863     -7406.1743     -3895.5389    
     38800   1085.9011      1314.5119     -7600.1555      223.34369     -7376.8118     -1803.6388    
     38900   1223.9808      1481.661      -7610.4838      251.74335     -7358.7404      16226.38     
     39000   994.63093      1204.0269     -7615.2202      204.57161     -7410.6486     -2137.3054    
     39100   1011.8709      1224.8964     -7652.1984      208.11746     -7444.0809      13025.607    
     39200   842.31571      1019.6453     -7632.314       173.24404     -7459.07        14074.731    
     39300   894.08872      1082.3179     -7622.4814      183.8925      -7438.5889      6202.4625    
     39400   1208.9893      1463.5133     -7635.4035      248.65995     -7386.7435     -1712.6736    
     39500   1193.5806      1444.8607     -7640.6658      245.49075     -7395.175      -8271.0213    
     39600   833.14551      1008.5446     -7636.933       171.35795     -7465.575      -12310.875    
     39700   1000.9011      1211.6171     -7686.2131      205.86123     -7480.3518      93.473016    
     39800   822.2181       995.31665     -7650.7935      169.11044     -7481.6831     -4184.3038    
     39900   979.38777      1185.5747     -7633.0408      201.43645     -7431.6043     -61.601436    
     40000   981.32303      1187.9174     -7615.6527      201.83449     -7413.8182     -9418.6648    
Loop time of 371.969 on 1 procs for 40000 steps with 70 atoms

Performance: 2.323 ns/day, 10.332 hours/ns, 107.536 timesteps/s, 7.528 katom-step/s
97.3% CPU use with 1 MPI tasks x no OpenMP threads

MPI task timing breakdown:
Section |  min time  |  avg time  |  max time  |%varavg| %total
---------------------------------------------------------------
Pair    | 348.23     | 348.23     | 348.23     |   0.0 | 93.62
Neigh   | 0.93214    | 0.93214    | 0.93214    |   0.0 |  0.25
Comm    | 0.26504    | 0.26504    | 0.26504    |   0.0 |  0.07
Output  | 0.057819   | 0.057819   | 0.057819   |   0.0 |  0.02
Modify  | 22.413     | 22.413     | 22.413     |   0.0 |  6.03
Other   |            | 0.07475    |            |       |  0.02

Nlocal:             70 ave          70 max          70 min
Histogram: 1 0 0 0 0 0 0 0 0 0
Nghost:           1525 ave        1525 max        1525 min
Histogram: 1 0 0 0 0 0 0 0 0 0
Neighs:          22777 ave       22777 max       22777 min
Histogram: 1 0 0 0 0 0 0 0 0 0

Total # of neighbors = 22777
Ave neighs/atom = 325.38571
Neighbor list builds = 215
Dangerous builds = 0

write_data      structures/${MODEL}_ramp_${STAGE}_final.data nocoeff
write_data      structures/model_a_ramp_${STAGE}_final.data nocoeff
write_data      structures/model_a_ramp_1200K_final.data nocoeff
System init for write_data ...
WARNING: Fix recenter should come after all other integration fixes (src/fix_recenter.cpp:130)
print "${MODEL} ramp stage ${STAGE} (T=${TSTAGE} K) done -> structures/${MODEL}_ramp_${STAGE}_final.data"
model_a ramp stage 1200K (T=1200 K) done -> structures/model_a_ramp_1200K_final.data
Total wall time: 0:06:12
